/*--------------------------------*- C++ -*----------------------------------*\
| =========                 |                                                 |
| \\      /  F ield         | OpenFOAM: The Open Source CFD Toolbox           |
|  \\    /   O peration     | Version:  2306                                  |
|   \\  /    A nd           | Website:  www.openfoam.com                      |
|    \\/     M anipulation  |                                                 |
\*---------------------------------------------------------------------------*/
FoamFile
{
    version     2.0;
    format      ascii;
    arch        "LSB;label=32;scalar=64";
    class       volScalarField;
    location    "12.5";
    object      p;
}
// * * * * * * * * * * * * * * * * * * * * * * * * * * * * * * * * * * * * * //

dimensions      [1 -1 -2 0 0 0 0];

internalField   nonuniform List<scalar> 
14400
(
-0.0158921
-0.0159116
-0.0159347
-0.0159613
-0.0159916
-0.0160257
-0.0160636
-0.0161054
-0.0161515
-0.0162018
-0.0162566
-0.0163162
-0.0163806
-0.0164502
-0.0165253
-0.0166062
-0.0166932
-0.0167866
-0.016887
-0.0169947
-0.0171104
-0.0172344
-0.0173676
-0.0175105
-0.017664
-0.0178288
-0.0180061
-0.0181968
-0.0184021
-0.0186233
-0.0188621
-0.01912
-0.019399
-0.0197013
-0.0200291
-0.0203854
-0.0207731
-0.0211957
-0.0216573
-0.0221622
-0.0227157
-0.0233234
-0.023992
-0.0247288
-0.0255425
-0.0264428
-0.0274412
-0.0285508
-0.0297876
-0.031171
-0.0327254
-0.0344823
-0.0364848
-0.0387992
-0.0415246
-0.0447638
-0.0487022
-0.0544225
-0.0642577
-0.0736171
-0.0503015
0.0309148
0.0373609
0.0328239
0.0309074
0.0296218
0.0283117
0.0270818
0.0259978
0.0250659
0.0242819
0.0236403
0.0231349
0.0227577
0.0225027
0.0224053
0.0225025
0.0227574
0.0231348
0.0236408
-0.0148982
-0.0149128
-0.01493
-0.0149498
-0.0149722
-0.0149973
-0.0150252
-0.015056
-0.0150898
-0.0151267
-0.0151667
-0.0152102
-0.0152571
-0.0153078
-0.0153623
-0.0154209
-0.0154837
-0.0155512
-0.0156234
-0.0157008
-0.0157837
-0.0158723
-0.0159672
-0.0160687
-0.0161774
-0.0162937
-0.0164184
-0.0165519
-0.0166951
-0.0168488
-0.0170138
-0.0171913
-0.0173822
-0.017588
-0.01781
-0.01805
-0.0183097
-0.0185914
-0.0188976
-0.0192311
-0.0195954
-0.0199943
-0.0204325
-0.0209153
-0.0214489
-0.0220401
-0.022697
-0.0234279
-0.0242417
-0.0251469
-0.0261502
-0.0272551
-0.0284595
-0.0297529
-0.0311127
-0.0324869
-0.0337727
-0.0349113
-0.036144
-0.037359
-0.0346299
-0.024316
-0.0215437
-0.0203714
-0.0191004
-0.018095
-0.0173702
-0.0168355
-0.0164429
-0.016163
-0.0159705
-0.0158451
-0.0157722
-0.0157471
-0.0157736
-0.0158004
-0.0157734
-0.0157467
-0.0157715
-0.0158436
-0.0139115
-0.0139211
-0.0139322
-0.0139449
-0.0139593
-0.0139752
-0.0139929
-0.0140123
-0.0140335
-0.0140565
-0.0140814
-0.0141083
-0.0141373
-0.0141684
-0.0142017
-0.0142373
-0.0142753
-0.0143159
-0.0143592
-0.0144052
-0.0144541
-0.0145061
-0.0145613
-0.0146199
-0.014682
-0.0147479
-0.0148177
-0.0148917
-0.0149699
-0.0150527
-0.0151402
-0.0152325
-0.0153299
-0.0154325
-0.0155402
-0.0156532
-0.0157711
-0.0158939
-0.0160207
-0.016151
-0.0162832
-0.0164157
-0.0165458
-0.0166699
-0.0167833
-0.0168795
-0.0169502
-0.0169845
-0.0169685
-0.0168847
-0.0167114
-0.0164216
-0.0159824
-0.0153539
-0.0144876
-0.0133249
-0.0117945
-0.00980857
-0.00722604
-0.00378556
0.000582475
0.0047816
0.00746033
0.00945761
0.0109396
0.0119619
0.0126417
0.0130742
0.0133253
0.0134449
0.0134722
0.0134371
0.0133619
0.0132585
0.0131355
0.0130707
0.0131364
0.0132605
0.0133649
0.0134413
-0.0129805
-0.0129853
-0.0129907
-0.0129968
-0.0130036
-0.013011
-0.0130191
-0.0130278
-0.0130372
-0.0130473
-0.0130581
-0.0130696
-0.0130818
-0.0130947
-0.0131083
-0.0131226
-0.0131377
-0.0131534
-0.0131698
-0.0131869
-0.0132046
-0.0132229
-0.0132418
-0.0132612
-0.013281
-0.0133011
-0.0133215
-0.0133419
-0.0133622
-0.0133821
-0.0134014
-0.0134197
-0.0134366
-0.0134515
-0.0134638
-0.0134728
-0.0134776
-0.013477
-0.0134696
-0.0134539
-0.013428
-0.0133896
-0.013336
-0.0132638
-0.0131693
-0.013048
-0.0128945
-0.0127022
-0.0124638
-0.0121701
-0.0118105
-0.0113721
-0.0108402
-0.0101972
-0.00942325
-0.00849662
-0.00739611
-0.00610456
-0.00460276
-0.00285497
-0.000870604
0.00111601
0.00275932
0.0041112
0.00522528
0.00613689
0.00687805
0.0074754
0.00795085
0.00832273
0.00860607
0.00881297
0.00895217
0.00902642
0.00903494
0.00902323
0.00903657
0.0090297
0.00895709
0.00881942
-0.0120623
-0.0120626
-0.0120626
-0.0120623
-0.0120618
-0.012061
-0.0120599
-0.0120585
-0.0120566
-0.0120544
-0.0120518
-0.0120486
-0.0120449
-0.0120406
-0.0120356
-0.0120298
-0.0120232
-0.0120155
-0.0120068
-0.0119969
-0.0119856
-0.0119727
-0.0119581
-0.0119414
-0.0119225
-0.011901
-0.0118765
-0.0118488
-0.0118172
-0.0117813
-0.0117404
-0.0116939
-0.0116409
-0.0115804
-0.0115114
-0.0114326
-0.0113425
-0.0112393
-0.0111212
-0.0109857
-0.0108303
-0.0106518
-0.0104466
-0.0102106
-0.00993903
-0.00962643
-0.00926661
-0.00885259
-0.00837661
-0.00783019
-0.00720424
-0.0064894
-0.00567645
-0.00475697
-0.0037244
-0.0025753
-0.00131139
5.7751e-05
0.00151219
0.00302077
0.00453592
0.00597851
0.00725733
0.00835908
0.00929116
0.0100657
0.0106985
0.0112071
0.0116082
0.0119171
0.0121473
0.0123102
0.0124147
0.012466
0.0124672
0.0124563
0.0124688
0.0124691
0.0124191
0.0123157
-0.0111832
-0.0111793
-0.0111743
-0.0111682
-0.0111611
-0.0111529
-0.0111435
-0.0111328
-0.0111209
-0.0111076
-0.0110928
-0.0110765
-0.0110585
-0.0110388
-0.0110172
-0.0109936
-0.0109678
-0.0109396
-0.0109089
-0.0108753
-0.0108387
-0.0107988
-0.0107553
-0.0107078
-0.0106559
-0.0105992
-0.0105373
-0.0104695
-0.0103952
-0.0103139
-0.0102245
-0.0101265
-0.0100186
-0.00989985
-0.009769
-0.00962466
-0.00946525
-0.00928905
-0.00909408
-0.00887818
-0.00863893
-0.00837365
-0.00807938
-0.0077529
-0.0073907
-0.006989
-0.0065438
-0.00605093
-0.00550611
-0.00490511
-0.00424391
-0.00351893
-0.0027274
-0.00186771
-0.000939972
5.33351e-05
0.00110664
0.00221044
0.00335044
0.00450669
0.00565254
0.00675453
0.00778035
0.00871364
0.00954717
0.0102792
0.0109119
0.0114501
0.0118999
0.0122679
0.0125606
0.0127841
0.0129436
0.0130419
0.0130807
0.0130859
0.0130822
0.0130449
0.0129479
0.0127895
-0.0103398
-0.0103321
-0.0103226
-0.0103114
-0.0102984
-0.0102836
-0.0102668
-0.010248
-0.0102271
-0.010204
-0.0101785
-0.0101507
-0.0101203
-0.0100872
-0.0100512
-0.0100121
-0.00996979
-0.00992397
-0.0098744
-0.00982082
-0.00976292
-0.00970037
-0.0096328
-0.00955981
-0.00948093
-0.00939569
-0.00930353
-0.00920385
-0.00909599
-0.00897921
-0.00885269
-0.00871556
-0.00856682
-0.0084054
-0.0082301
-0.00803963
-0.00783257
-0.00760736
-0.00736232
-0.00709562
-0.00680531
-0.00648928
-0.00614531
-0.00577107
-0.00536414
-0.00492206
-0.00444238
-0.00392273
-0.00336094
-0.00275514
-0.00210393
-0.0014066
-0.000663302
0.000124606
0.00095432
0.00182127
0.00271881
0.00363805
0.00456776
0.00549448
0.00640285
0.0072765
0.00810047
0.00886425
0.00956118
0.0101877
0.0107425
0.0112263
0.0116408
0.0119885
0.0122721
0.0124947
0.0126586
0.0127653
0.0128155
0.0128271
0.0128169
0.0127681
0.0126626
0.0124996
-0.00953698
-0.00952599
-0.00951269
-0.00949703
-0.00947896
-0.00945839
-0.00943526
-0.00940946
-0.0093809
-0.00934947
-0.00931502
-0.00927744
-0.00923655
-0.00919219
-0.00914418
-0.0090923
-0.00903633
-0.00897602
-0.0089111
-0.00884128
-0.00876622
-0.00868559
-0.00859898
-0.00850599
-0.00840615
-0.00829895
-0.00818387
-0.0080603
-0.00792759
-0.00778506
-0.00763194
-0.00746741
-0.00729058
-0.0071005
-0.00689614
-0.0066764
-0.0064401
-0.00618599
-0.00591277
-0.00561904
-0.00530337
-0.0049643
-0.00460032
-0.00420993
-0.00379169
-0.00334423
-0.00286629
-0.00235685
-0.00181513
-0.00124075
-0.000633794
5.06918e-06
0.000674436
0.00137205
0.00209468
0.002838
0.00359651
0.00436353
0.00513125
0.00589095
0.00663329
0.00734887
0.00802905
0.00866673
0.00925654
0.0097947
0.0102788
0.0107077
0.011081
0.0113991
0.0116627
0.011873
0.0120309
0.0121368
0.0121909
0.0122055
0.0121921
0.0121391
0.0120343
0.0118773
-0.00877644
-0.0087627
-0.00874618
-0.0087268
-0.00870449
-0.00867919
-0.0086508
-0.00861923
-0.00858437
-0.0085461
-0.00850427
-0.00845876
-0.00840938
-0.00835597
-0.00829832
-0.00823624
-0.00816948
-0.00809779
-0.00802091
-0.00793854
-0.00785035
-0.00775601
-0.00765513
-0.00754732
-0.00743214
-0.00730913
-0.00717777
-0.00703754
-0.00688785
-0.00672808
-0.00655757
-0.00637563
-0.0061815
-0.00597441
-0.00575352
-0.00551797
-0.00526686
-0.00499926
-0.00471422
-0.00441078
-0.00408797
-0.00374485
-0.00338051
-0.00299413
-0.00258494
-0.00215234
-0.00169587
-0.00121532
-0.000710745
-0.000182523
0.00036856
0.000941256
0.00153379
0.0021438
0.00276831
0.00340365
0.00404552
0.004689
0.00532864
0.00595857
0.00657278
0.00716529
0.00773056
0.00826368
0.00876058
0.009218
0.00963348
0.0100053
0.0103323
0.0106138
0.0108495
0.0110396
0.0111842
0.011283
0.0113359
0.0113512
0.0113369
0.0112851
0.0111873
0.0110436
-0.0080596
-0.00804365
-0.00802452
-0.00800214
-0.00797644
-0.00794736
-0.00791479
-0.00787865
-0.00783881
-0.00779517
-0.00774758
-0.0076959
-0.00763997
-0.00757962
-0.00751464
-0.00744485
-0.00737001
-0.00728989
-0.00720422
-0.00711274
-0.00701514
-0.00691111
-0.0068003
-0.00668235
-0.00655687
-0.00642345
-0.00628165
-0.006131
-0.00597102
-0.00580119
-0.00562097
-0.00542979
-0.00522707
-0.00501219
-0.00478454
-0.00454348
-0.00428835
-0.00401852
-0.00373336
-0.00343225
-0.0031146
-0.00277989
-0.00242764
-0.00205749
-0.00166916
-0.00126253
-0.000837635
-0.000394717
6.57483e-05
0.000543014
0.00103603
0.00154341
0.00206339
0.00259383
0.00313219
0.00367554
0.00422056
0.00476359
0.00530074
0.00582791
0.00634095
0.00683579
0.00730857
0.00775577
0.00817428
0.00856146
0.00891511
0.00923349
0.00951525
0.0097594
0.00996524
0.0101323
0.0102604
0.010349
0.0103978
0.0104125
0.0103987
0.0103508
0.010263
0.0101357
-0.00738697
-0.00736932
-0.00734818
-0.00732351
-0.00729524
-0.00726329
-0.00722757
-0.00718799
-0.00714445
-0.00709682
-0.00704499
-0.00698881
-0.00692813
-0.00686279
-0.00679261
-0.00671741
-0.00663697
-0.00655108
-0.0064595
-0.00636199
-0.00625829
-0.00614811
-0.00603115
-0.0059071
-0.00577564
-0.0056364
-0.00548904
-0.00533316
-0.00516838
-0.00499428
-0.00481045
-0.00461645
-0.00441184
-0.00419618
-0.00396903
-0.00372995
-0.00347851
-0.0032143
-0.00293695
-0.0026461
-0.00234145
-0.00202278
-0.00168992
-0.00134279
-0.000981438
-0.000606026
-0.000216864
0.00018557
0.000600611
0.00102739
0.0014648
0.00191152
0.00236595
0.00282625
0.00329033
0.00375585
0.00422026
0.00468081
0.00513462
0.00557873
0.00601014
0.00642593
0.00682329
0.0071996
0.00755247
0.00787978
0.00817969
0.00845063
0.00869132
0.0089007
0.00907797
0.00922252
0.0093339
0.00941159
0.0094552
0.00946868
0.00945597
0.00941312
0.0093362
0.00922553
-0.00675847
-0.00673958
-0.00671701
-0.00669071
-0.00666061
-0.00662663
-0.00658871
-0.00654675
-0.00650066
-0.00645033
-0.00639564
-0.00633647
-0.00627268
-0.00620412
-0.00613063
-0.00605205
-0.0059682
-0.00587888
-0.0057839
-0.00568303
-0.00557605
-0.00546273
-0.00534282
-0.00521606
-0.00508217
-0.00494089
-0.00479191
-0.00463494
-0.00446968
-0.00429583
-0.00411306
-0.00392107
-0.00371955
-0.0035082
-0.00328673
-0.00305486
-0.00281233
-0.00255893
-0.00229445
-0.00201875
-0.00173173
-0.00143336
-0.00112367
-0.000802781
-0.000470917
-0.0001284
0.000224326
0.000586682
0.000957947
0.00133724
0.00172353
0.00211561
0.00251209
0.00291143
0.00331193
0.00371172
0.0041088
0.00450109
0.0048864
0.00526252
0.00562721
0.0059783
0.00631366
0.00663132
0.00692941
0.00720624
0.0074603
0.00769027
0.007895
0.00807352
0.00822506
0.00834899
0.00844483
0.00851206
0.00855031
0.00856234
0.00855096
0.00851337
0.00844679
0.00835159
-0.00617344
-0.00615375
-0.00613026
-0.00610292
-0.00607167
-0.00603644
-0.00599717
-0.00595377
-0.00590616
-0.00585425
-0.00579793
-0.00573709
-0.00567162
-0.00560138
-0.00552623
-0.00544604
-0.00536065
-0.00526989
-0.00517361
-0.00507162
-0.00496373
-0.00484976
-0.0047295
-0.00460275
-0.0044693
-0.00432893
-0.00418143
-0.00402657
-0.00386412
-0.00369388
-0.00351563
-0.00332915
-0.00313425
-0.00293074
-0.00271845
-0.00249722
-0.00226695
-0.00202752
-0.0017789
-0.00152106
-0.00125405
-0.000977953
-0.000692937
-0.000399234
-9.71555e-05
0.000212896
0.000530423
0.000854825
0.00118539
0.00152131
0.00186162
0.00220529
0.00255112
0.00289784
0.00324405
0.00358827
0.00392892
0.00426436
0.00459292
0.0049129
0.00522259
0.00552033
0.00580449
0.00607353
0.00632599
0.00656053
0.00677591
0.00697105
0.00714497
0.00729684
0.00742595
0.00753174
0.00761375
0.00767152
0.00770471
0.0077153
0.00770531
0.00767272
0.00761555
0.00753413
-0.00563078
-0.00561067
-0.00558671
-0.00555885
-0.00552704
-0.00549123
-0.00545135
-0.00540734
-0.00535911
-0.0053066
-0.00524971
-0.00518834
-0.0051224
-0.00505178
-0.00497636
-0.00489603
-0.00481066
-0.00472012
-0.00462427
-0.00452297
-0.00441608
-0.00430344
-0.0041849
-0.0040603
-0.00392949
-0.00379232
-0.00364861
-0.00349822
-0.003341
-0.0031768
-0.00300548
-0.00282693
-0.00264102
-0.00244765
-0.00224676
-0.00203828
-0.00182219
-0.00159848
-0.00136721
-0.00112844
-0.0008823
-0.000628968
-0.000368671
-0.0001017
0.000171589
0.000450768
0.000735336
0.00102471
0.00131824
0.00161516
0.00191466
0.00221582
0.00251764
0.00281907
0.00311895
0.0034161
0.00370925
0.00399711
0.00427837
0.0045517
0.00481577
0.00506928
0.00531097
0.00553962
0.00575409
0.00595329
0.00613624
0.00630204
0.00644988
0.00657907
0.00668901
0.00677919
0.00684922
0.00689871
0.00692737
0.00693661
0.0069279
0.00689978
0.00685083
0.00678133
-0.00512901
-0.00510882
-0.00508478
-0.00505685
-0.005025
-0.00498917
-0.00494931
-0.00490538
-0.00485729
-0.004805
-0.00474841
-0.00468747
-0.00462208
-0.00455215
-0.0044776
-0.00439833
-0.00431425
-0.00422524
-0.0041312
-0.00403203
-0.00392761
-0.00381783
-0.00370259
-0.00358176
-0.00345524
-0.00332292
-0.00318469
-0.00304046
-0.00289014
-0.00273363
-0.00257086
-0.00240178
-0.00222634
-0.0020445
-0.00185626
-0.00166162
-0.00146064
-0.00125337
-0.00103991
-0.000820413
-0.000595038
-0.000364009
-0.00012759
0.000113905
0.00036011
0.000610601
0.0008649
0.00112247
0.0013827
0.00164494
0.00190846
0.00217249
0.00243618
0.00269865
0.00295896
0.00321614
0.00346918
0.00371704
0.00395867
0.00419303
0.00441907
0.00463575
0.00484209
0.0050371
0.00521989
0.00538959
0.0055454
0.00568659
0.0058125
0.00592256
0.00601626
0.00609318
0.00615299
0.00619535
0.00622003
0.00622806
0.00622052
0.00619633
0.00615447
0.00609515
-0.00466637
-0.00464636
-0.00462257
-0.00459495
-0.00456347
-0.00452811
-0.0044888
-0.00444552
-0.0043982
-0.00434679
-0.00429124
-0.00423148
-0.00416745
-0.00409909
-0.00402631
-0.00394905
-0.00386723
-0.00378078
-0.00368962
-0.00359366
-0.00349284
-0.00338707
-0.00327627
-0.00316038
-0.00303932
-0.00291302
-0.00278143
-0.00264449
-0.00250214
-0.00235437
-0.00220113
-0.00204242
-0.00187824
-0.00170861
-0.00153357
-0.00135317
-0.00116751
-0.000976693
-0.000780853
-0.000580161
-0.00037482
-0.000165068
4.88189e-05
0.000266525
0.000487693
0.000711922
0.000938767
0.00116774
0.0013983
0.00162986
0.00186182
0.00209349
0.00232418
0.00255314
0.00277961
0.00300277
0.00322182
0.00343591
0.00364421
0.00384586
0.00404005
0.00422594
0.00440273
0.00456966
0.00472599
0.00487103
0.00500414
0.00512472
0.00523224
0.00532622
0.00540625
0.00547198
0.00552314
0.00555944
0.00558069
0.00558765
0.00558113
0.00556032
0.00552446
0.00547374
-0.00424088
-0.00422129
-0.00419801
-0.00417101
-0.00414026
-0.00410574
-0.00406741
-0.00402523
-0.00397917
-0.00392919
-0.00387524
-0.00381727
-0.00375524
-0.0036891
-0.00361879
-0.00354426
-0.00346546
-0.00338233
-0.00329482
-0.00320288
-0.00310646
-0.0030055
-0.00289997
-0.00278981
-0.00267499
-0.00255548
-0.00243124
-0.00230226
-0.00216854
-0.00203006
-0.00188684
-0.00173891
-0.0015863
-0.00142906
-0.00126727
-0.00110102
-0.000930417
-0.000755602
-0.000576731
-0.000393989
-0.00020759
-1.77749e-05
0.000175182
0.000370977
0.000569271
0.000769694
0.000971841
0.00117527
0.00137951
0.00158406
0.00178838
0.00199189
0.00219401
0.00239412
0.00259157
0.00278571
0.00297586
0.00316135
0.00334148
0.00351559
0.00368299
0.00384302
0.00399505
0.00413844
0.00427261
0.004397
0.00451109
0.0046144
0.0047065
0.00478698
0.00485553
0.00491184
0.00495569
0.00498685
0.00500517
0.00501121
0.00500558
0.00498766
0.0049569
0.00491346
-0.00385048
-0.00383148
-0.00380892
-0.00378277
-0.00375302
-0.00371964
-0.00368261
-0.00364191
-0.0035975
-0.00354935
-0.00349743
-0.00344171
-0.00338216
-0.00331873
-0.0032514
-0.00318013
-0.00310488
-0.00302562
-0.00294231
-0.00285494
-0.00276346
-0.00266785
-0.00256809
-0.00246417
-0.00235606
-0.00224376
-0.00212728
-0.00200661
-0.00188179
-0.00175282
-0.00161976
-0.00148264
-0.00134154
-0.00119653
-0.0010477
-0.000895168
-0.000739054
-0.000579509
-0.000416701
-0.00025082
-8.20791e-05
8.92846e-05
0.00026301
0.00043881
0.000616373
0.00079536
0.000975408
0.00115612
0.0013371
0.00151788
0.00169802
0.00187703
0.00205441
0.00222963
0.00240216
0.00257146
0.00273697
0.00289814
0.0030544
0.0032052
0.00334998
0.00348823
0.0036194
0.00374301
0.00385856
0.00396561
0.00406374
0.00415254
0.00423168
0.00430083
0.00435972
0.0044081
0.0044458
0.00447262
0.00448844
0.00449368
0.0044888
0.00447334
0.00444688
0.00440954
-0.00349297
-0.00347471
-0.00345303
-0.00342792
-0.00339937
-0.00336737
-0.00333189
-0.00329292
-0.00325044
-0.00320442
-0.00315485
-0.00310171
-0.00304497
-0.00298461
-0.00292061
-0.00285296
-0.00278162
-0.00270659
-0.00262785
-0.00254538
-0.00245917
-0.00236923
-0.00227553
-0.0021781
-0.00207693
-0.00197203
-0.00186344
-0.00175117
-0.00163526
-0.00151577
-0.00139273
-0.00126623
-0.00113634
-0.00100315
-0.000866763
-0.000727306
-0.000584912
-0.000439734
-0.000291941
-0.00014172
1.07222e-05
0.00016516
0.000321349
0.000479024
0.0006379
0.000797671
0.000958013
0.00111858
0.00127901
0.00143893
0.00159792
0.00175559
0.00191151
0.00206523
0.00221631
0.00236429
0.00250873
0.00264914
0.00278508
0.00291608
0.00304171
0.00316151
0.00327507
0.00338197
0.00348183
0.00357426
0.00365894
0.00373554
0.00380377
0.00386338
0.00391412
0.00395583
0.00398833
0.00401148
0.00402517
0.00402972
0.00402549
0.00401212
0.00398929
0.00395711
-0.0031662
-0.00314877
-0.00312809
-0.00310415
-0.00307695
-0.00304648
-0.00301272
-0.00297567
-0.00293532
-0.00289164
-0.00284464
-0.00279429
-0.00274059
-0.00268352
-0.00262309
-0.00255927
-0.00249206
-0.00242147
-0.00234748
-0.00227009
-0.00218932
-0.00210517
-0.00201766
-0.00192679
-0.00183259
-0.0017351
-0.00163434
-0.00153036
-0.00142321
-0.00131295
-0.00119964
-0.00108336
-0.000964211
-0.00084228
-0.000717683
-0.000590542
-0.000460997
-0.000329198
-0.00019531
-5.95138e-05
7.79949e-05
0.000217006
0.000357292
0.000498611
0.000640706
0.000783303
0.000926113
0.00106883
0.00121115
0.00135273
0.00149323
0.0016323
0.00176957
0.00190468
0.00203725
0.00216689
0.00229323
0.00241588
0.00253447
0.0026486
0.00275792
0.00286206
0.00296068
0.00305343
0.00314
0.00322008
0.00329339
0.00335968
0.0034187
0.00347024
0.00351412
0.00355018
0.00357828
0.00359832
0.0036102
0.00361416
0.00361048
0.00359888
0.00357912
0.00355129
-0.00286799
-0.00285145
-0.00283185
-0.00280917
-0.00278342
-0.00275459
-0.00272267
-0.00268766
-0.00264956
-0.00260835
-0.00256403
-0.00251661
-0.00246608
-0.00241243
-0.00235567
-0.0022958
-0.00223283
-0.00216675
-0.00209759
-0.00202534
-0.00195003
-0.00187168
-0.00179031
-0.00170594
-0.00161862
-0.00152838
-0.00143527
-0.00133933
-0.00124064
-0.00113925
-0.00103524
-0.000928698
-0.000819714
-0.000708391
-0.000594843
-0.000479194
-0.000361578
-0.000242142
-0.000121044
1.54608e-06
0.000125445
0.000250459
0.000376379
0.000502988
0.000630052
0.000757329
0.000884563
0.00101149
0.00113783
0.0012633
0.0013876
0.00151043
0.00163148
0.00175045
0.001867
0.00198082
0.00209159
0.00219898
0.00230269
0.0024024
0.00249779
0.00258858
0.00267447
0.00275519
0.00283047
0.00290006
0.00296374
0.00302128
0.00307249
0.00311721
0.00315526
0.00318654
0.00321092
0.00322831
0.00323864
0.0032421
0.00323888
0.0032288
0.00321165
0.00318751
-0.00259624
-0.00258065
-0.00256217
-0.0025408
-0.00251656
-0.00248942
-0.0024594
-0.0024265
-0.0023907
-0.00235202
-0.00231046
-0.00226602
-0.0022187
-0.00216852
-0.00211547
-0.00205957
-0.00200083
-0.00193926
-0.00187489
-0.00180773
-0.00173781
-0.00166515
-0.00158979
-0.00151176
-0.00143111
-0.00134788
-0.00126213
-0.0011739
-0.00108328
-0.000990318
-0.000895108
-0.000797734
-0.000698288
-0.000596875
-0.000493605
-0.0003886
-0.000281989
-0.000173911
-6.45162e-05
4.60381e-05
0.000157583
0.000269939
0.00038292
0.000496326
0.000609951
0.000723577
0.000836981
0.000949927
0.00106218
0.00117348
0.00128358
0.00139222
0.00149913
0.00160406
0.00170672
0.00180685
0.00190417
0.00199843
0.00208934
0.00217666
0.00226012
0.00233948
0.0024145
0.00248494
0.00255059
0.00261125
0.00266672
0.00271682
0.0027614
0.0028003
0.00283341
0.00286061
0.00288182
0.00289696
0.00290597
0.00290899
0.00290618
0.00289738
0.00288245
0.00286145
-0.00234891
-0.00233428
-0.00231694
-0.00229691
-0.00227419
-0.00224878
-0.00222068
-0.00218989
-0.00215642
-0.00212028
-0.00208148
-0.00204001
-0.0019959
-0.00194915
-0.00189978
-0.0018478
-0.00179323
-0.0017361
-0.00167641
-0.00161422
-0.00154953
-0.00148239
-0.00141284
-0.00134091
-0.00126665
-0.00119012
-0.00111136
-0.00103045
-0.00094745
-0.000862432
-0.000775477
-0.000686672
-0.00059611
-0.000503892
-0.000410125
-0.000314926
-0.000218416
-0.000120728
-2.19984e-05
7.76249e-05
0.000177988
0.000278927
0.000380274
0.000481849
0.000583469
0.000684941
0.000786066
0.00088664
0.000986452
0.00108529
0.00118292
0.00127914
0.0013737
0.0014664
0.00155698
0.00164523
0.00173092
0.00181381
0.00189369
0.00197034
0.00204354
0.00211308
0.00217877
0.00224041
0.00229782
0.00235083
0.00239929
0.00244303
0.00248194
0.00251589
0.00254477
0.0025685
0.00258701
0.00260022
0.00260809
0.00261074
0.00260827
0.00260058
0.00258755
0.00256922
-0.00212407
-0.00211039
-0.00209421
-0.00207551
-0.0020543
-0.0020306
-0.0020044
-0.00197572
-0.00194455
-0.00191092
-0.00187483
-0.00183629
-0.00179533
-0.00175194
-0.00170616
-0.001658
-0.00160749
-0.00155464
-0.00149949
-0.00144208
-0.00138242
-0.00132057
-0.00125656
-0.00119044
-0.00112226
-0.00105206
-0.000979921
-0.00090589
-0.00083004
-0.000752444
-0.000673182
-0.000592338
-0.000510003
-0.000426272
-0.00034125
-0.000255045
-0.000167771
-7.95517e-05
9.48587e-06
9.9207e-05
0.000189471
0.00028013
0.000371032
0.000462016
0.00055292
0.000643571
0.000733795
0.000823413
0.00091224
0.00100009
0.00108677
0.00117209
0.00125585
0.00133786
0.00141792
0.00149584
0.00157142
0.00164446
0.00171479
0.00178222
0.00184656
0.00190765
0.0019653
0.00201937
0.00206971
0.00211616
0.00215859
0.00219689
0.00223094
0.00226064
0.00228591
0.00230666
0.00232285
0.00233441
0.00234131
0.00234362
0.00234146
0.00233471
0.0023233
0.00230726
-0.00191986
-0.00190713
-0.00189206
-0.00187468
-0.00185496
-0.00183294
-0.00180861
-0.00178198
-0.00175306
-0.00172187
-0.00168843
-0.00165273
-0.00161481
-0.00157468
-0.00153237
-0.00148789
-0.00144127
-0.00139254
-0.00134173
-0.00128888
-0.00123402
-0.00117719
-0.00111843
-0.0010578
-0.000995338
-0.000931103
-0.000865155
-0.000797555
-0.000728371
-0.000657675
-0.000585544
-0.000512059
-0.000437307
-0.000361379
-0.000284371
-0.000206387
-0.000127533
-4.79217e-05
3.23297e-05
0.000113098
0.000194256
0.00027567
0.000357202
0.000438711
0.00052005
0.000601068
0.000681611
0.00076152
0.000840636
0.000918794
0.00099583
0.00107158
0.00114586
0.00121853
0.00128939
0.0013583
0.00142508
0.00148957
0.00155161
0.00161105
0.00166772
0.00172149
0.00177221
0.00181975
0.00186398
0.00190477
0.00194203
0.00197564
0.00200551
0.00203156
0.00205372
0.00207192
0.00208611
0.00209625
0.0021023
0.00210434
0.00210243
0.0020965
0.00208648
0.00207242
-0.00173454
-0.00172274
-0.00170877
-0.00169265
-0.00167439
-0.00165399
-0.00163146
-0.00160682
-0.00158008
-0.00155125
-0.00152034
-0.00148738
-0.00145239
-0.00141538
-0.00137638
-0.00133541
-0.0012925
-0.00124769
-0.001201
-0.00115247
-0.00110213
-0.00105004
-0.000996225
-0.000940742
-0.00088364
-0.000824972
-0.000764797
-0.000703177
-0.000640176
-0.000575863
-0.000510314
-0.000443604
-0.000375815
-0.000307035
-0.000237353
-0.000166863
-9.56654e-05
-2.38626e-05
4.84377e-05
0.000121124
0.00019408
0.000267186
0.00034032
0.000413354
0.000486157
0.000558596
0.000630536
0.000701837
0.000772358
0.000841958
0.000910491
0.000977814
0.00104378
0.00110825
0.00117107
0.0012321
0.0012912
0.00134823
0.00140306
0.00145554
0.00150556
0.00155298
0.00159769
0.00163957
0.00167852
0.00171443
0.00174721
0.00177677
0.00180303
0.00182594
0.00184541
0.0018614
0.00187388
0.00188279
0.00188812
0.00188991
0.00188822
0.001883
0.00187419
0.00186182
-0.00156651
-0.0015556
-0.00154268
-0.00152779
-0.00151092
-0.00149208
-0.00147129
-0.00144855
-0.00142388
-0.0013973
-0.00136883
-0.00133848
-0.00130627
-0.00127222
-0.00123636
-0.00119872
-0.00115933
-0.00111821
-0.0010754
-0.00103093
-0.000984851
-0.000937193
-0.000888003
-0.000837328
-0.000785218
-0.000731725
-0.000676906
-0.00062082
-0.000563529
-0.000505101
-0.000445604
-0.000385111
-0.0003237
-0.000261449
-0.000198445
-0.000134772
-7.05239e-05
-5.7934e-06
5.93211e-05
0.000124718
0.000190294
0.00025594
0.000321547
0.000387
0.000452184
0.000516982
0.000581272
0.000644932
0.00070784
0.000769871
0.000830898
0.000890797
0.000949442
0.00100671
0.00106247
0.0011166
0.00116898
0.00121949
0.00126802
0.00131445
0.00135867
0.00140057
0.00144005
0.00147702
0.00151139
0.00154306
0.00157196
0.00159801
0.00162116
0.00164133
0.00165848
0.00167257
0.00168355
0.0016914
0.0016961
0.00169767
0.00169618
0.00169157
0.0016838
0.0016729
-0.00141423
-0.00140416
-0.00139226
-0.00137853
-0.00136298
-0.00134564
-0.00132649
-0.00130557
-0.00128288
-0.00125844
-0.00123226
-0.00120438
-0.0011748
-0.00114355
-0.00111066
-0.00107615
-0.00104006
-0.00100241
-0.000963234
-0.000922572
-0.00088046
-0.000836939
-0.000792052
-0.000745844
-0.000698363
-0.00064966
-0.00059979
-0.000548808
-0.000496775
-0.000443751
-0.000389804
-0.000335001
-0.000279414
-0.000223117
-0.000166188
-0.000108706
-5.07555e-05
7.57777e-06
6.62049e-05
0.000125034
0.000183972
0.000242921
0.000301783
0.000360456
0.000418838
0.000476823
0.000534307
0.000591181
0.000647336
0.000702665
0.000757057
0.000810402
0.000862592
0.000913517
0.00096307
0.00101114
0.00105763
0.00110244
0.00114546
0.00118659
0.00122574
0.00126283
0.00129776
0.00133045
0.00136082
0.00138881
0.00141433
0.00143734
0.00145777
0.00147558
0.00149072
0.00150315
0.00151284
0.00151977
0.00152391
0.00152531
0.00152398
0.00151991
0.00151304
0.00150342
-0.00127634
-0.00126708
-0.00125613
-0.00124351
-0.00122922
-0.00121328
-0.0011957
-0.00117648
-0.00115565
-0.00113323
-0.00110922
-0.00108366
-0.00105655
-0.00102793
-0.000997825
-0.000966251
-0.000933243
-0.000898831
-0.000863048
-0.000825927
-0.000787508
-0.000747828
-0.000706929
-0.000664855
-0.000621652
-0.000577368
-0.000532055
-0.000485766
-0.000438558
-0.000390488
-0.000341617
-0.00029201
-0.000241732
-0.000190852
-0.000139441
-8.75725e-05
-3.53231e-05
1.72294e-05
7.00042e-05
0.000122919
0.000175888
0.000228826
0.000281644
0.000334251
0.000386557
0.000438468
0.000489891
0.000540731
0.000590892
0.000640279
0.000688795
0.000736346
0.000782837
0.000828171
0.000872257
0.000915001
0.000956313
0.000996104
0.00103429
0.00107078
0.0011055
0.00113838
0.00116932
0.00119828
0.00122517
0.00124994
0.00127252
0.00129287
0.00131094
0.00132669
0.00134007
0.00135106
0.00135962
0.00136575
0.00136941
0.00137064
0.00136946
0.00136585
0.00135978
0.00135126
-0.0011515
-0.00114299
-0.00113295
-0.00112137
-0.00110827
-0.00109365
-0.00107753
-0.00105992
-0.00104085
-0.00102031
-0.000998337
-0.000974944
-0.000950154
-0.000923989
-0.000896475
-0.000867636
-0.000837502
-0.000806101
-0.000773467
-0.000739632
-0.000704632
-0.000668505
-0.000631291
-0.00059303
-0.000553768
-0.000513549
-0.000472421
-0.000430436
-0.000387645
-0.000344103
-0.000299867
-0.000254995
-0.000209548
-0.00016359
-0.000117186
-7.04019e-05
-2.33084e-05
2.40242e-05
7.15227e-05
0.000119113
0.000166718
0.000214261
0.000261662
0.000308842
0.000355718
0.000402208
0.00044823
0.0004937
0.000538533
0.000582647
0.000625955
0.000668376
0.000709826
0.000750222
0.000789482
0.000827528
0.00086428
0.000899662
0.000933599
0.000966018
0.00099685
0.00102603
0.00105349
0.00107917
0.00110301
0.00112496
0.00114498
0.00116301
0.00117902
0.00119296
0.00120481
0.00121454
0.00122212
0.00122755
0.00123079
0.00123188
0.00123083
0.00122763
0.00122225
0.0012147
-0.00103854
-0.00103075
-0.00102155
-0.00101095
-0.000998954
-0.000985578
-0.000970832
-0.000954728
-0.000937283
-0.000918513
-0.000898434
-0.000877067
-0.000854432
-0.000830551
-0.000805448
-0.000779148
-0.000751679
-0.000723069
-0.000693349
-0.000662551
-0.000630709
-0.000597859
-0.000564037
-0.000529285
-0.000493642
-0.000457152
-0.00041986
-0.000381813
-0.000343059
-0.000303649
-0.000263636
-0.000223073
-0.000182017
-0.000140526
-9.86581e-05
-5.64758e-05
-1.40416e-05
2.85801e-05
7.13236e-05
0.000114122
0.000156906
0.000199606
0.000242152
0.000284473
0.000326495
0.000368145
0.000409351
0.000450037
0.000490131
0.000529557
0.000568243
0.000606115
0.0006431
0.000679126
0.000714122
0.000748019
0.000780748
0.000812242
0.000842437
0.00087127
0.00089868
0.000924611
0.000949006
0.000971813
0.000992983
0.00101247
0.00103023
0.00104623
0.00106043
0.00107279
0.0010833
0.00109193
0.00109865
0.00110346
0.00110634
0.0011073
0.00110637
0.00110352
0.00109875
0.00109206
-0.000936381
-0.000929259
-0.000920848
-0.000911158
-0.000900198
-0.000887977
-0.000874508
-0.000859804
-0.000843879
-0.00082675
-0.000808432
-0.000788945
-0.000768309
-0.000746544
-0.000723675
-0.000699725
-0.00067472
-0.000648687
-0.000621656
-0.000593657
-0.000564722
-0.000534885
-0.000504182
-0.000472648
-0.000440323
-0.000407248
-0.000373463
-0.000339013
-0.000303942
-0.000268297
-0.000232127
-0.00019548
-0.00015841
-0.000120968
-8.32086e-05
-4.51875e-05
-6.9618e-06
3.14104e-05
6.98697e-05
0.000108356
0.000146806
0.00018516
0.000223353
0.000261322
0.000299001
0.000336327
0.000373234
0.000409656
0.000445528
0.000480786
0.000515363
0.000549196
0.000582221