/*--------------------------------*- C++ -*----------------------------------*\
| =========                 |                                                 |
| \\      /  F ield         | OpenFOAM: The Open Source CFD Toolbox           |
|  \\    /   O peration     | Version:  2306                                  |
|   \\  /    A nd           | Website:  www.openfoam.com                      |
|    \\/     M anipulation  |                                                 |
\*---------------------------------------------------------------------------*/
FoamFile
{
    version     2.0;
    format      ascii;
    arch        "LSB;label=32;scalar=64";
    class       surfaceScalarField;
    location    "12.5";
    object      phi;
}
// * * * * * * * * * * * * * * * * * * * * * * * * * * * * * * * * * * * * * //

dimensions      [0 3 -1 0 0 0 0];

oriented        oriented;

internalField   nonuniform List<scalar> 
37980
(
-0.164564
0.0301198
4.89507e-10
-0.194828
0.0302644
4.42976e-10
-0.225264
0.0304358
3.24852e-10
-0.255898
0.0306344
1.96794e-10
-0.286759
0.0308612
1.86789e-10
-0.317876
0.0311169
2.33408e-10
-0.349279
0.0314024
2.45186e-10
-0.380998
0.031719
2.76018e-10
-0.413065
0.0320678
2.70564e-10
-0.445516
0.0324501
2.95582e-10
-0.478383
0.0328676
2.85203e-10
-0.511705
0.0333219
3.11586e-10
-0.54552
0.033815
2.99164e-10
-0.579869
0.0343489
3.29382e-10
-0.614795
0.0349261
3.15665e-10
-0.650344
0.035549
3.5124e-10
-0.686565
0.0362207
3.36167e-10
-0.723509
0.0369443
3.78254e-10
-0.761232
0.0377234
3.61316e-10
-0.799794
0.038562
4.11048e-10
-0.839259
0.0394645
3.91542e-10
-0.879695
0.0404359
4.50269e-10
-0.921177
0.0414817
4.27262e-10
-0.963785
0.0426082
4.96389e-10
-1.00761
0.0438223
4.68513e-10
-1.05274
0.0451319
5.49585e-10
-1.09928
0.0465459
5.15066e-10
-1.14736
0.0480745
6.09702e-10
-1.19709
0.0497292
5.66162e-10
-1.24861
0.0515232
6.75926e-10
-1.30208
0.0534716
6.20136e-10
-1.35768
0.055592
7.4632e-10
-1.41558
0.0579048
6.73913e-10
-1.47601
0.0604339
8.17319e-10
-1.53922
0.0632073
7.22614e-10
-1.60548
0.0662583
8.83522e-10
-1.67511
0.0696266
7.59641e-10
-1.74847
0.0733601
9.37974e-10
-1.82598
0.0775168
7.76803e-10
-1.90815
0.0821677
9.71011e-10
-1.99555
0.0874005
7.59452e-10
-2.08888
0.0933244
9.56964e-10
-2.18895
0.100076
6.56934e-10
-2.29678
0.10783
7.96923e-10
-2.41359
0.116805
2.8506e-10
-2.54087
0.127288
1.78429e-10
-2.68052
0.139644
-8.43781e-10
-2.83487
0.154351
-1.62763e-09
-3.0069
0.172033
-3.42173e-09
-3.20041
0.193511
-4.70201e-09
-3.42028
0.219866
-7.0333e-09
-3.67281
0.252531
-7.19824e-09
-3.96622
0.293411
-7.66711e-09
-4.31131
0.345092
-3.30071e-09
-4.72257
0.411259
5.20573e-10
-5.22021
0.497637
8.87689e-09
-5.83393
0.613722
1.24305e-08
-6.60997
0.776043
1.66218e-08
-7.62577
1.0158
1.30651e-08
-9.01448
1.38871
1.66053e-08
-11.0092
1.99477
1.4242e-08
-9.24319
2.95864
-3.3996e-08
-7.94119
3.4227
-4.61835e-08
-6.88386
3.66738
-5.91326e-08
-5.98516
3.826
-6.55307e-08
-5.19936
3.9389
-6.14093e-08
-4.49692
4.02227
-5.45541e-08
-3.85727
4.08505
-4.52686e-08
-3.26544
4.13287
-3.75499e-08
-2.71019
4.16946
-3.1991e-08
-2.1829
4.19741
-2.88665e-08
-1.67678
4.21859
-2.78503e-08
-1.18637
4.2343
-2.87434e-08
-0.707093
4.24543
-3.04876e-08
-0.234849
4.25246
-3.39603e-08
0.234856
4.255
-3.3509e-08
0.707099
4.25246
-5.04748e-08
1.18637
4.24543
-4.48403e-08
1.67678
4.2343
-6.81807e-08
4.21859
-6.91015e-08
-0.243452
0.0746629
-6.63045e-11
-0.288202
0.075014
-8.34371e-11
-0.333197
0.0754309
-2.09919e-10
-0.378477
0.0759151
-3.15025e-10
-0.424085
0.0764684
-2.9965e-10
-0.470061
0.0770928
-2.68847e-10
-0.516449
0.0777906
-2.43706e-10
-0.563294
0.0785645
-2.3628e-10
-0.610644
0.0794173
-2.29683e-10
-0.658546
0.0803524
-2.32698e-10
-0.707052
0.0813736
-2.31555e-10
-0.756215
0.0824848
-2.3856e-10
-0.806091
0.0836908
-2.39866e-10
-0.856738
0.0849965
-2.49409e-10
-0.90822
0.0864077
-2.52242e-10
-0.960602
0.0879306
-2.63869e-10
-1.01395
0.0895721
-2.67905e-10
-1.06835
0.0913399
-2.81635e-10
-1.12387
0.0932426
-2.8694e-10
-1.1806
0.0952896
-3.03059e-10
-1.23862
0.0974915
-3.09612e-10
-1.29805
0.09986
-3.28251e-10
-1.35897
0.102408
-3.36061e-10
-1.42152
0.105151
-3.57504e-10
-1.4858
0.108104
-3.66356e-10
-1.55195
0.111287
-3.90715e-10
-1.62013
0.114719
-4.00102e-10
-1.69048
0.118425
-4.27312e-10
-1.76318
0.122431
-4.36182e-10
-1.83842
0.126766
-4.65791e-10
-1.91641
0.131464
-4.72174e-10
-1.99739
0.136566
-5.03032e-10
-2.0816
0.142115
-5.03416e-10
-2.16933
0.148162
-5.33069e-10
-2.26089
0.154768
-5.21234e-10
-2.35663
0.162
-5.44687e-10
-2.45694
0.16994
-5.09632e-10
-2.56226
0.17868
-5.17252e-10
-2.67307
0.18833
-4.40314e-10
-2.78993
0.199022
-4.1601e-10
-2.91344
0.210909
-2.70556e-10
-3.04429
0.224175
-1.97125e-10
-3.18325
0.239043
3.65447e-11
-3.3312
0.255779
1.4556e-10
-3.48911
0.274707
4.23493e-10
-3.65804
0.296227
4.44073e-10
-3.83923
0.320826
5.61964e-10
-4.03399
0.349112
2.05658e-10
-4.2438
0.381846
-1.42012e-10
-4.47027
0.419981
-9.75137e-10
-4.71513
0.464728
-1.52339e-09
-4.98023
0.517626
-1.75312e-09
-5.26746
0.580648
-6.54642e-10
-5.5787
0.656327
1.99967e-09
-5.91542
0.747978
6.64046e-09
-6.27784
0.860062
1.14998e-08
-6.66297
0.998848
1.66915e-08
-7.06071
1.17379
1.86677e-08
-7.4454
1.40049
1.73916e-08
-7.75978
1.70308
1.17195e-08
-7.85917
2.09416
6.54986e-09
-7.40673
2.50621
8.71237e-09
-6.79614
2.81211
3.70616e-09
-6.16302
3.03427
2.13918e-09
-5.53858
3.20156
4.6534e-09
-4.93182
3.33214
9.82121e-09
-4.34595
3.4364
1.55102e-08
-3.78129
3.52039
2.09073e-08
-3.23652
3.5881
2.45496e-08
-2.70945
3.64239
2.67914e-08
-2.19743
3.68539
2.7609e-08
-1.69756
3.71872
2.7499e-08
-1.20683
3.74357
2.6988e-08
-0.722165
3.76076
2.61323e-08
-0.240481
3.77078
2.57735e-08
0.24048
3.77404
2.67288e-08
0.722164
3.77078
2.51347e-08
1.20683
3.76076
2.49653e-08
1.69756
3.74357
2.0078e-08
3.71872
1.68268e-08
-0.251017
0.120579
4.47444e-11
-0.297139
0.121136
-5.19139e-12
-0.343505
0.121797
-9.8908e-11
-0.390156
0.122566
-2.1524e-10
-0.437132
0.123444
-1.89953e-10
-0.484474
0.124436
-1.46934e-10
-0.532227
0.125544
-1.12177e-10
-0.580435
0.126772
-9.60702e-11
-0.629144
0.128126
-8.20392e-11
-0.678402
0.12961
-7.65923e-11
-0.728259
0.131231
-6.66715e-11
-0.778767
0.132993
-6.32029e-11
-0.829982
0.134906
-5.30519e-11
-0.881961
0.136975
-4.92253e-11
-0.934764
0.139211
-3.72427e-11
-0.988455
0.141622
-3.20175e-11
-1.0431
0.144219
-1.72832e-11
-1.09878
0.147014
-1.00196e-11
-1.15555
0.15002
8.21757e-12
-1.21352
0.153252
1.8094e-11
-1.27275
0.156724
4.05852e-11
-1.33335
0.160456
5.36862e-11
-1.3954
0.164466
8.13341e-11
-1.45903
0.168777
9.84363e-11
-1.52434
0.173412
1.32258e-10
-1.59145
0.1784
1.54275e-10
-1.6605
0.183771
1.95427e-10
-1.73163
0.189558
2.23484e-10
-1.80501
0.195801
2.7329e-10
-1.88078
0.202543
3.08812e-10
-1.95915
0.209833
3.68783e-10
-2.04031
0.217725
4.13644e-10
-2.12448
0.226283
4.85594e-10
-2.2119
0.235579
5.42479e-10
-2.30282
0.245694
6.28917e-10
-2.39755
0.256723
7.02127e-10
-2.49638
0.268771
8.07186e-10
-2.59966
0.281964
9.04196e-10
-2.70778
0.296445
1.03522e-09
-2.82113
0.312379
1.16841e-09
-2.94018
0.329961
1.33627e-09
-3.06542
0.349415
1.52116e-09
-3.19739
0.371005
1.73277e-09
-3.33665
0.395041
1.9734e-09
-3.48383
0.421887
2.20454e-09
-3.63957
0.45197
2.45694e-09
-3.80454
0.485795
2.61467e-09
-3.97939
0.523958
2.77883e-09
-4.1647
0.567164
2.76462e-09
-4.36097
0.616244
2.89252e-09
-4.56842
0.672175
2.98319e-09
-4.7869
0.736112
3.76049e-09
-5.01566
0.809405
5.00368e-09
-5.25297
0.893637
7.49663e-09
-5.49565
0.990655
1.06544e-08
-5.73821
1.10263
1.41093e-08
-5.97149
1.23212
1.71714e-08
-6.17992
1.38222
1.79031e-08
-6.33617
1.55673
1.71586e-08
-6.39257
1.75949
1.32416e-08
-6.28652
1.9881
8.17578e-09
-6.00133
2.22102
3.51593e-09
-5.61408
2.42486
-4.68007e-10
-5.17678
2.59697
-1.74149e-09
-4.71746
2.74225
-6.84144e-10
-4.25049
2.86516
2.9511e-09
-3.78314
2.96905
6.97712e-09
-3.3192
3.05646
1.14286e-08
-2.8605
3.12941
1.46999e-08
-2.40771
3.18959
1.73584e-08
-1.96072
3.2384
1.70662e-08
-1.51896
3.27696
1.86002e-08
-1.08155
3.30616
2.04386e-08
-0.647442
3.32665
2.04649e-08
-0.215537
3.33887
2.03458e-08
0.215535
3.34297
2.00994e-08
0.64744
3.33887
1.8585e-08
1.08155
3.32665
1.87238e-08
1.51896
3.30616
1.6629e-08
3.27696
1.85537e-08
-0.247906
0.165913
2.66485e-10
-0.293432
0.166662
2.61132e-10
-0.339186
0.167552
1.14214e-10
-0.385206
0.168586
2.07334e-11
-0.43153
0.169768
2.90258e-11
-0.478196
0.171102
5.13302e-11
-0.525245
0.172592
6.72089e-11
-0.572716
0.174244
6.93693e-11
-0.620654
0.176064
7.03545e-11
-0.669101
0.178058
6.54546e-11
-0.718104
0.180234
6.31178e-11
-0.76771
0.182599
5.62245e-11
-0.817968
0.185164
5.22679e-11
-0.86893
0.187937
4.38173e-11
-0.92065
0.190931
3.8242e-11
-0.973185
0.194156
2.80582e-11
-1.02659
0.197628
2.05181e-11
-1.08094
0.20136
8.2137e-12
-1.13629
0.205369
-1.85747e-12
-1.19271
0.209673
-1.68877e-11
-1.25028
0.214293
-3.02492e-11
-1.30907
0.219249
-4.86068e-11
-1.36917
0.224567
-6.63003e-11
-1.43067
0.230274
-8.90758e-11
-1.49366
0.236399
-1.12405e-10
-1.55823
0.242976
-1.40622e-10
-1.6245
0.250042
-1.71245e-10
-1.69258
0.257637
-2.06312e-10
-1.76259
0.265809
-2.46231e-10
-1.83465
0.274607
-2.89673e-10
-1.90891
0.284089
-3.41226e-10
-1.9855
0.294319
-3.94572e-10
-2.06459
0.305369
-4.60254e-10
-2.14633
0.31732
-5.24891e-10
-2.2309
0.330263
-6.06932e-10
-2.31848
0.344301
-6.83067e-10
-2.40926
0.359549
-7.82444e-10
-2.50343
0.376139
-8.68243e-10
-2.60121
0.39422
-9.83431e-10
-2.70279
0.413959
-1.07313e-09
-2.80837
0.43555
-1.19799e-09
-2.91817
0.459209
-1.27533e-09
-3.03235
0.485185
-1.39958e-09
-3.15107
0.513759
-1.46898e-09
-3.27443
0.545252
-1.60269e-09
-3.40249
0.580027
-1.66343e-09
-3.53519
0.618498
-1.82935e-09
-3.67236
0.661129
-1.92252e-09
-3.81365
0.708448
-2.16627e-09
-3.95845
0.761042
-2.29707e-09
-4.10584
0.819566
-2.5411e-09
-4.25446
0.884737
-2.51219e-09
-4.40239
0.957333
-2.41935e-09
-4.54693
1.03818
-1.92188e-09
-4.68438
1.12811
-1.27122e-09
-4.80971
1.22796
-6.21571e-10
-4.91605
1.33846
-1.54203e-10
-4.99398
1.46015
-6.46492e-10
-5.0304
1.59315
-1.72797e-09
-5.00753
1.73663
-4.08845e-09
-4.90675
1.88732
-6.67647e-09
-4.72363
2.0379
-9.44574e-09
-4.47788
2.17911
-1.15234e-08
-4.18857
2.30765
-1.23418e-08
-3.86928
2.42296
-1.22069e-08
-3.5294
2.52528
-1.0773e-08
-3.17548
2.61514
-9.21782e-09
-2.81223
2.6932
-7.23545e-09
-2.44298
2.76016
-5.89954e-09
-2.07007
2.81668
-4.73821e-09
-1.69506
2.86339
-4.32592e-09
-1.31897
2.90086
-4.11597e-09
-0.942361
2.92955
-4.36205e-09
-0.565516
2.94981
-4.66916e-09
-0.188526
2.96188
-5.29529e-09
0.188533
2.96591
-7.48236e-09
0.565523
2.96188
-1.47391e-09
0.942367
2.94981
-8.79385e-09
1.31898
2.92955
-5.37869e-10
2.90087
-4.47069e-09
-0.242628
0.210263
4.71777e-11
-0.287152
0.211186
-8.59955e-12
-0.331883
0.212283
-7.98811e-11
-0.376854
0.213557
-1.90909e-10
-0.4221
0.215014
-1.63193e-10
-0.467655
0.216656
-1.21761e-10
-0.513554
0.218491
-8.8223e-11
-0.559834
0.220524
-7.43209e-11
-0.606532
0.222762
-6.12446e-11
-0.653687
0.225213
-5.75616e-11
-0.701338
0.227885
-4.79558e-11
-0.749527
0.230788
-4.57956e-11
-0.798295
0.233932
-3.5444e-11
-0.847688
0.23733
-3.27763e-11
-0.89775
0.240993
-2.03444e-11
-0.948529
0.244936
-1.64052e-11
-1.00008
0.249174
-1.10447e-12
-1.05244
0.253724
4.60804e-12
-1.10568
0.258605
2.35371e-11
-1.15984
0.263838
3.15402e-11
-1.21499
0.269443
5.49764e-11
-1.27119
0.275448
6.58862e-11
-1.3285
0.281877
9.49238e-11
-1.38699
0.288762
1.09497e-10
-1.44672
0.296135
1.45489e-10
-1.50778
0.304032
1.647e-10
-1.57023
0.312493
2.09336e-10
-1.63415
0.321562
2.34407e-10
-1.69963
0.331288
2.89985e-10
-1.76675
0.341724
3.22502e-10
-1.83559
0.35293
3.91129e-10
-1.90625
0.364972
4.35678e-10
-1.9788
0.377922
5.2222e-10
-2.05334
0.391862
5.77083e-10
-2.12996
0.406881
6.88435e-10
-2.20874
0.423078
7.62213e-10
-2.28975
0.440565
9.04676e-10
-2.37308
0.459464
1.00208e-09
-2.45877
0.479911
1.18987e-09
-2.54687
0.502058
1.34762e-09
-2.63739
0.526074
1.64941e-09
-2.73032
0.552143
1.59363e-09
-2.82561
0.580473
1.98194e-09
-2.92314
0.611289
2.42715e-09
-3.02273
0.64484
2.79273e-09
-3.1241
0.6814
3.09353e-09
-3.22687
0.721263
3.63498e-09
-3.33049
0.76475
3.99803e-09
-3.43424
0.812199
4.63671e-09
-3.53717
0.863969
5.02016e-09
-3.63803
0.920428
5.7551e-09
-3.73523
0.981943
6.17782e-09
-3.82677
1.04887
7.08717e-09
-3.91012
1.12153
7.63858e-09
-3.98218
1.20017
8.81369e-09
-4.03916
1.28493
9.4877e-09
-4.0765
1.37581
1.07937e-08
-4.08888
1.47252
1.13242e-08
-4.07019
1.57446
1.23643e-08
-4.01404
1.68048
1.24776e-08
-3.91531
1.78859
1.30356e-08
-3.77326
1.89585
1.29124e-08
-3.5932
1.99905
1.3345e-08
-3.38173
2.09618
1.35334e-08
-3.14484
2.18607
1.42443e-08
-2.88765
2.26809
1.48345e-08
-2.61443
2.34192
1.56691e-08
-2.32868
2.40745
1.62512e-08
-2.03326
2.46474
1.67992e-08
-1.73048
2.5139
1.69543e-08
-1.42218
2.55509
1.69461e-08
-1.10983
2.58852
1.65145e-08
-0.794618
2.61433
1.60377e-08
-0.477496
2.63269
1.56193e-08
-0.159285
2.64367
1.56098e-08
0.159281
2.64734
1.76483e-08
0.477492
2.64367
1.48727e-08
0.794615
2.63269
2.49646e-08
1.10983
2.61433
2.39064e-08
2.58852
2.87525e-08
-0.23605
0.253389
3.10442e-10
-0.279329
0.254464
3.19359e-10
-0.322789
0.255743
1.7509e-10
-0.366459
0.257228
1.02131e-10
-0.410369
0.258924
1.04555e-10
-0.454549
0.260836
1.17804e-10
-0.499028
0.262971
1.26024e-10
-0.543839
0.265334
1.23285e-10
-0.589012
0.267935
1.20658e-10
-0.63458
0.27078
1.12956e-10
-0.680575
0.27388
1.08325e-10
-0.727032
0.277245
9.92402e-11
-0.773985
0.280885
9.33965e-11
-0.82147
0.284815
8.27395e-11
-0.869523
0.289046
7.52224e-11
-0.918182
0.293595
6.24617e-11
-0.967485
0.298477
5.27082e-11
-1.01747
0.303711
3.72627e-11
-1.06818
0.309316
2.46315e-11
-1.11966
0.315313
5.8232e-12
-1.17194
0.321727
-1.04841e-11
-1.22508
0.328582
-3.3526e-11
-1.27911
0.335907
-5.45684e-11
-1.33408
0.343731
-8.30125e-11
-1.39003
0.352089
-1.10222e-10
-1.44701
0.361017
-1.45639e-10
-1.50508
0.370554
-1.80922e-10
-1.56426
0.380743
-2.25408e-10
-1.6246
0.391634
-2.7128e-10
-1.68615
0.403276
-3.27676e-10
-1.74895
0.415728
-3.87412e-10
-1.81303
0.429051
-4.58957e-10
-1.87842
0.443314
-5.38666e-10
-1.94515
0.45859
-6.29573e-10
-2.01323
0.474961
-7.2676e-10
-2.08267
0.492515
-8.44004e-10
-2.15345
0.511349
-9.73702e-10
-2.22556
0.531569
-1.12167e-09
-2.29893
0.553288
-1.23842e-09
-2.37351
0.576631
-1.6011e-09
-2.44917
0.601733
-1.73688e-09
-2.52576
0.628737
-1.9008e-09
-2.60309
0.6578
-2.18268e-09
-2.68088
0.689086
-2.48817e-09
-2.75881
0.722771
-2.82103e-09
-2.83645
0.759038
-3.20119e-09
-2.91327
0.798079
-3.61927e-09
-2.98861
0.840087
-4.11142e-09
-3.06166
0.885256
-4.65506e-09
-3.13147
0.933773
-5.30163e-09
-3.19685
0.985812
-6.00471e-09
-3.25643
1.04152
-6.81954e-09
-3.30858
1.10102
-7.66464e-09
-3.3514
1.16435
-8.58341e-09
-3.38274
1.23151
-9.46771e-09
-3.40017
1.30237
-1.03496e-08
-3.40104
1.37668
-1.11309e-08
-3.38255
1.45403
-1.18413e-08
-3.34188
1.53379
-1.24382e-08
-3.2765
1.6151
-1.29274e-08
-3.18472
1.69681
-1.33508e-08
-3.0664
1.77752
-1.36451e-08
-2.92314
1.8558
-1.39404e-08
-2.75744
1.93047
-1.40892e-08
-2.57202
2.00065
-1.4289e-08
-2.3696
2.06567
-1.43502e-08
-2.15277
2.12508
-1.4498e-08
-1.92386
2.17855
-1.45462e-08
-1.685
2.22588
-1.47176e-08
-1.43805
2.26695
-1.48499e-08
-1.18467
2.30171
-1.51846e-08
-0.926283
2.33013
-1.55535e-08
-0.664182
2.35223
-1.6206e-08
-0.399514
2.36802
-1.67744e-08
-0.133337
2.37749
-1.73501e-08
0.13334
2.38066
-1.69787e-08
0.399516
2.37749
-1.53486e-08
0.664184
2.36802
-1.55223e-08
0.926285
2.35223
-1.36673e-08
2.33013
-1.41354e-08
-0.228377
0.295088
-6.20171e-11
-0.270205
0.296293
-1.16248e-10
-0.312187
0.297724
-1.51218e-10
-0.354346
0.299387
-2.39194e-10
-0.396708
0.301285
-2.0997e-10
-0.439295
0.303424
-1.72863e-10
-0.482134
0.30581
-1.43382e-10
-0.525249
0.30845
-1.31763e-10
-0.568667
0.311352
-1.21232e-10
-0.612411
0.314525
-1.19021e-10
-0.656509
0.317978
-1.12155e-10
-0.700987
0.321723
-1.1168e-10
-0.745871
0.325769
-1.04881e-10
-0.791188
0.330132
-1.04539e-10
-0.836965
0.334823
-9.68668e-11
-0.88323
0.339859
-9.61676e-11
-0.930009
0.345256
-8.71714e-11
-0.97733
0.351032
-8.58558e-11
-1.02522
0.357206
-7.51623e-11
-1.07371
0.3638
-7.30074e-11
-1.12282
0.370837
-6.0229e-11
-1.17258
0.378342
-5.70236e-11
-1.22301
0.386341
-4.17474e-11
-1.27414
0.394865
-3.73122e-11
-1.326
0.403945
-1.91188e-11
-1.3786
0.413616
-1.33254e-11
-1.43196
0.423914
8.2073e-12
-1.4861
0.434881
1.53649e-11
-1.54102
0.44656
4.06306e-11
-1.59675
0.458999
4.902e-11
-1.65327
0.472248
7.78629e-11
-1.71058
0.486363
8.82543e-11
-1.76867
0.501402
1.2138e-10
-1.82751
0.517431
1.3079e-10
-1.88706
0.534517
1.6884e-10
-1.94728
0.552735
1.76515e-10
-2.0081
0.572163
2.19359e-10
-2.06941
0.592885
2.25115e-10
-2.13112
0.614991
2.71261e-10
-2.19306
0.638577
2.76635e-10
-2.25507
0.66374
3.25088e-10
-2.31692
0.690586
3.13614e-10
-2.37834
0.719223
3.60892e-10
-2.43902
0.749762
3.37594e-10
-2.49856
0.782315
3.7973e-10
-2.55652
0.816995
3.32024e-10
-2.61235
0.85391
3.55811e-10
-2.66542
0.893163
2.66618e-10
-2.71502
0.934848
2.50105e-10
-2.76028
0.979041
9.78023e-11
-2.80027
1.0258
1.70938e-11
-2.83389
1.07515
-2.08379e-10
-2.85994
1.12707
-3.56593e-10
-2.87711
1.18151
-6.26821e-10
-2.88395
1.23835
-8.00469e-10
-2.87898
1.29739
-1.03833e-09
-2.86065
1.35835
-1.15983e-09
-2.82749
1.42086
-1.28133e-09
-2.77812
1.48443
-1.30036e-09
-2.71148
1.54845
-1.28989e-09
-2.62691
1.61224
-1.24287e-09
-2.52439
1.67501
-1.18048e-09
-2.40457
1.73597
-1.16811e-09
-2.2685
1.79441
-1.16581e-09
-2.11757
1.84971
-1.27079e-09
-1.95324
1.90135
-1.39153e-09
-1.77708
1.94892
-1.62757e-09
-1.59061
1.99208
-1.86534e-09
-1.3953
2.03057
-2.20293e-09
-1.19257
2.06422
-2.54472e-09
-0.983739
2.09287
-3.00808e-09
-0.770034
2.11643
-3.5425e-09
-0.552623
2.13482
-4.20448e-09
-0.332606
2.148
-4.89524e-09
-0.111041
2.15593
-5.42275e-09
0.111041
2.15858
-5.09632e-09
0.332606
2.15593
-4.41751e-09
0.552623
2.148
-1.59868e-09
0.770034
2.13482
-2.44449e-10
2.11643
6.22054e-10
-0.219779
0.33519
2.74376e-10
-0.259987
0.3365
3.04717e-10
-0.300318
0.338056
1.8147e-10
-0.340793
0.339862
1.46129e-10
-0.38143
0.341922
1.46658e-10
-0.422249
0.344242
1.52084e-10
-0.463268
0.346829
1.54348e-10
-0.504508
0.349689
1.49691e-10
-0.545987
0.352831
1.46803e-10
-0.587724
0.356262
1.40539e-10
-0.629738
0.359992
1.37906e-10
-0.672048
0.364033
1.31898e-10
-0.714673
0.368394
1.29474e-10
-0.757631
0.373089
1.23189e-10
-0.800939
0.378132
1.20404e-10
-0.844616
0.383536
1.13393e-10
-0.888678
0.389318
1.09902e-10
-0.933142
0.395495
1.01914e-10
-0.978021
0.402086
9.75086e-11
-1.02333
0.409111
8.83731e-11
-1.06909
0.416591
8.28658e-11
-1.11529
0.42455
7.23983e-11
-1.16196
0.433013
6.55641e-11
-1.20911
0.442007
5.35235e-11
-1.25672
0.451561
4.50596e-11
-1.30481
0.461706
3.1107e-11
-1.35337
0.472476
2.06007e-11
-1.4024
0.483906
4.26552e-12
-1.45187
0.496035
-8.83753e-12
-1.50178
0.508903
-2.81851e-11
-1.55208
0.522555
-4.46132e-11
-1.60276
0.537036
-6.7794e-11
-1.65375
0.552395
-8.8469e-11
-1.705
0.568685
-1.16542e-10
-1.75645
0.585962
-1.42662e-10
-1.808
0.604282
-1.76644e-10
-1.85954
0.623707
-2.08005e-10
-1.91096
0.6443
-2.46798e-10
-1.96209
0.666126
-3.09194e-10
-2.01277
0.689254
-3.36872e-10
-2.06278
0.713752
-3.9158e-10
-2.11188
0.73969
-4.52269e-10
-2.1598
0.767138
-5.12843e-10
-2.2062
0.796162
-5.82065e-10
-2.25071
0.826828
-6.52414e-10
-2.29291
0.859195
-7.29096e-10
-2.33232
0.893317
-8.09053e-10
-2.36839
0.929234
-8.90252e-10
-2.40052
0.966977
-9.78653e-10
-2.42803
1.00656
-1.0582e-09
-2.4502
1.04797
-1.1502e-09
-2.46623
1.09117
-1.21326e-09
-2.47525
1.13609
-1.29068e-09
-2.47638
1.18264
-1.30949e-09
-2.46869
1.23066
-1.34201e-09
-2.45127
1.27996
-1.26543e-09
-2.42321
1.33029
-1.20404e-09
-2.38369
1.38135
-9.91579e-10
-2.33204
1.43277
-8.08939e-10
-2.26772
1.48414
-4.60671e-10
-2.19048
1.535
-1.80354e-10
-2.10033
1.58486
2.43806e-10
-1.99759
1.63324
5.51651e-10
-1.88284
1.67966
9.62732e-10
-1.75682
1.72369
1.22691e-09
-1.62043
1.76496
1.56129e-09
-1.47463
1.80312
1.74962e-09
-1.32045
1.8379
1.9907e-09
-1.15893
1.86905
2.12115e-09
-0.991107
1.89639
2.04167e-09
-0.817999
1.91976
2.21295e-09
-0.640611
1.93904
2.43595e-09
-0.459921
1.95413
2.31496e-09
-0.276888
1.96497
1.8724e-09
-0.092452
1.97149
1.62559e-09
0.0924519
1.97368
1.60334e-09
0.276887
1.97149
2.4225e-09
0.459921
1.96497
3.42671e-09
0.640611
1.95413
4.80346e-09
1.93904
6.04384e-09
-0.210434
0.37356
-1.60013e-10
-0.248885
0.374951
-2.05817e-10
-0.287429
0.376601
-2.04023e-10
-0.326083
0.378515
-2.6366e-10
-0.36486
0.380698
-2.35314e-10
-0.403773
0.383156
-2.04505e-10
-0.442837
0.385893
-1.79962e-10
-0.482065
0.388917
-1.69975e-10
-0.52147
0.392236
-1.60846e-10
-0.561066
0.395857
-1.58375e-10
-0.600863
0.39979
-1.52366e-10
-0.640875
0.404044
-1.51302e-10
-0.681111
0.408631
-1.45608e-10
-0.721584
0.413562
-1.44724e-10
-0.762302
0.41885
-1.38691e-10
-0.803273
0.424508
-1.37608e-10
-0.844507
0.430551
-1.30957e-10
-0.886007
0.436996
-1.29456e-10
-0.92778
0.443859
-1.21998e-10
-0.969828
0.451159
-1.19901e-10
-1.01215
0.458914
-1.11486e-10
-1.05475
0.467147
-1.08639e-10
-1.09762
0.47588
-9.91574e-11
-1.14075
0.485136
-9.5439e-11
-1.18413
0.494941
-8.48375e-11
-1.22774
0.505322
-8.01766e-11
-1.27158
0.516308
-6.84911e-11
-1.3156
0.527928
-6.2894e-11
-1.35978
0.540215
-5.02809e-11
-1.40408
0.553202
-4.38542e-11
-1.44845
0.566926
-3.06344e-11
-1.49284
0.581423
-2.36217e-11
-1.53717
0.596733
-1.03487e-11
-1.58138
0.612895
-3.14966e-12
-1.62537
0.629952
9.38348e-12
-1.66904
0.647946
1.61599e-11
-1.71225
0.666923
2.68297e-11
-1.75488
0.686926
3.27138e-11
-1.79676
0.708002
4.05372e-11
-1.8377
0.730195
4.39439e-11
-1.87749
0.753548
4.61144e-11
-1.91591
0.778106
4.77808e-11
-1.95268
0.803906
4.40073e-11
-1.9875
0.830985
4.30182e-11
-2.02005
0.859375
3.09474e-11
-2.04995
0.889098
3.0155e-11
-2.0768
0.92017
8.85086e-12
-2.10017
0.952597
1.00404e-11
-2.11956
0.986371
-2.0335e-11
-2.13447
1.02147
-1.27185e-11
-2.14435
1.05785
-5.06831e-11
-2.14863
1.09545
-2.94078e-11
-2.14672
1.13418
-6.92797e-11
-2.13801
1.17393
-2.30804e-11
-2.12191
1.21456
-5.41617e-11
-2.09784
1.2559
3.16696e-11
-2.06529
1.29774
2.39648e-11
-2.02378
1.33984
1.60652e-10
-1.97294
1.38193
1.85121e-10
-1.91253
1.42372
3.68674e-10
-1.84242
1.46489
4.18471e-10
-1.76268
1.50511
6.24728e-10
-1.67349
1.54405
6.77997e-10
-1.57522
1.58139
8.72777e-10
-1.46833
1.61681
9.07667e-10
-1.35341
1.65004
1.06618e-09
-1.23111
1.68081
1.07582e-09
-1.10212
1.70892
1.19179e-09
-0.967215
1.73414
1.18093e-09
-0.827151
1.75633
1.25375e-09
-0.682719
1.77533
1.21051e-09
-0.534712
1.79103
1.20647e-09
-0.383924
1.80334
1.10126e-09
-0.23115
1.81219
9.13306e-10
-0.0771826
1.81753
5.51712e-10
0.0771836
1.81931
-2.18184e-10
0.231151
1.81753
1.21173e-09
0.383925
1.81219
2.62964e-10
0.534712
1.80334
2.21065e-09
1.79103
2.20539e-09
-0.200519
0.410095
1.96528e-10
-0.23711
0.411542
2.36809e-10
-0.273767
0.413258
1.4311e-10
-0.3105
0.415248
1.35575e-10
-0.347318
0.417516
1.33625e-10
-0.384229
0.420067
1.3248e-10
-0.421243
0.422907
1.30493e-10
-0.458367
0.426041
1.25192e-10
-0.495609
0.429478
1.22724e-10
-0.532976
0.433224
1.18196e-10
-0.570474
0.437288
1.17274e-10
-0.608109
0.441679
1.13839e-10
-0.645885
0.446407
1.13814e-10
-0.683806
0.451483
1.10776e-10
-0.721874
0.456918
1.11073e-10
-0.76009
0.462724
1.081e-10
-0.798454
0.468915
1.08527e-10
-0.836963
0.475505
1.0558e-10
-0.875613
0.482509
1.06142e-10
-0.914398
0.489944
1.03324e-10
-0.953309
0.497825
1.04107e-10
-0.992334
0.506173
1.01583e-10
-1.03146
0.515005
1.02711e-10
-1.07066
0.524342
1.0069e-10
-1.10993
0.534205
1.02313e-10
-1.14922
0.544618
1.01051e-10
-1.18852
0.555603
1.03365e-10
-1.22778
0.567185
1.03188e-10
-1.26695
0.579391
1.06442e-10
-1.30599
0.592246
1.0777e-10
-1.34485
0.605778
1.12301e-10
-1.38344
0.620017
1.15694e-10
-1.4217
0.634991
1.21946e-10
-1.45953
0.65073
1.28154e-10
-1.49685
0.667265
1.36734e-10
-1.53353
0.684625
1.46799e-10
-1.56944
0.702841
1.58545e-10
-1.60446
0.721943
1.73906e-10
-1.63842
0.741958
1.89927e-10
-1.67114
0.762915
2.12573e-10
-1.70243
0.784838
2.34491e-10
-1.73207
0.807749
2.67202e-10
-1.75983
0.831667
2.97247e-10
-1.78545
0.856606
3.43864e-10
-1.80865
0.882573
3.84953e-10
-1.82912
0.90957
4.50291e-10
-1.84654
0.937589
5.05988e-10
-1.86056
0.966616
5.95748e-10
-1.87081
0.99662
6.70019e-10
-1.87691
1.02756
7.90004e-10
-1.87845
1.05939
8.86534e-10
-1.87504
1.09203
1.04229e-09
-1.86625
1.1254
1.16401e-09
-1.8517
1.15938
1.35845e-09
-1.831
1.19386
1.50714e-09
-1.80379
1.22869
1.74104e-09
-1.76974
1.26369
1.91596e-09
-1.7286
1.2987
2.18488e-09
-1.68015
1.33349
2.3813e-09
-1.62429
1.36786
2.67394e-09
-1.56097
1.40158
2.88132e-09
-1.49026
1.4344
3.17936e-09
-1.41232
1.46611
3.38261e-09
-1.32738
1.49645
3.66478e-09
-1.23578
1.52521
3.84933e-09
-1.13793
1.55219
4.09839e-09
-1.03429
1.57717
4.25637e-09
-0.925376
1.6
4.46465e-09
-0.811736
1.6205
4.59741e-09
-0.693958
1.63855
4.76468e-09
-0.572648
1.65402
4.87697e-09
-0.44843
1.66682
5.00274e-09
-0.321939
1.67685
5.10178e-09
-0.193818
1.68407
5.16108e-09
-0.0647158
1.68842
5.15254e-09
0.064715
1.68988
4.91152e-09
0.193817
1.68842
5.25745e-09
0.321939
1.68407
5.71137e-09
0.44843
1.67685
6.28688e-09
1.66682
7.23882e-09
-0.190206
0.444725
-2.42778e-10
-0.224869
0.446205
-2.75307e-10
-0.259571
0.44796
-2.48112e-10
-0.294317
0.449995
-2.76723e-10
-0.329113
0.452312
-2.50489e-10
-0.363962
0.454916
-2.26746e-10
-0.398869
0.457813
-2.0764e-10
-0.433836
0.461009
-1.99477e-10
-0.468867
0.464509
-1.91847e-10
-0.503963
0.46832
-1.89463e-10
-0.539124
0.47245
-1.84562e-10
-0.574352
0.476907
-1.83564e-10
-0.609645
0.4817
-1.79336e-10
-0.645
0.486838
-1.78782e-10
-0.680414
0.492331
-1.74747e-10
-0.715881
0.498191
-1.74324e-10
-0.751394
0.504428
-1.70318e-10
-0.786945
0.511056
-1.69859e-10
-0.822522
0.518086
-1.65834e-10
-0.858112
0.525533
-1.65234e-10
-0.893698
0.533412
-1.6122e-10
-0.929262
0.541736
-1.60422e-10
-0.96478
0.550523
-1.56526e-10
-1.00023
0.559789
-1.55517e-10
-1.03557
0.569551
-1.51936e-10
-1.07078
0.579828
-1.5075e-10
-1.10582
0.590638
-1.47784e-10
-1.14063
0.602
-1.46505e-10
-1.17518
0.613935
-1.44575e-10
-1.20939
0.626462
-1.4335e-10
-1.24322
0.639603
-1.4303e-10
-1.27658
0.653378
-1.42058e-10
-1.3094
0.667807
-1.44078e-10
-1.34158
0.682913
-1.43606e-10
-1.37303
0.698714
-1.48878e-10
-1.40363
0.715231
-1.49162e-10
-1.43328
0.732483
-1.58739e-10
-1.46182
0.750488
-1.59978e-10
-1.48912
0.76926
-1.75037e-10
-1.51502
0.788814
-1.77276e-10
-1.53935
0.809162
-1.98946e-10
-1.56191
0.83031
-2.01933e-10
-1.5825
0.852262
-2.31214e-10
-1.60091
0.875019
-2.34203e-10
-1.61691
0.898573
-2.71716e-10
-1.63026
0.922912
-2.73419e-10
-1.64068
0.948016
-3.19273e-10
-1.64793
0.973858
-3.17849e-10
-1.65171
1.0004
-3.71572e-10
-1.65174
1.0276
-3.64891e-10
-1.64774
1.05539
-4.2554e-10
-1.63942
1.08371
-4.11637e-10
-1.6265
1.11248
-4.77878e-10
-1.6087
1.14159
-4.55426e-10
-1.58579
1.17095
-5.25661e-10
-1.55753
1.20043
-4.94373e-10
-1.52373
1.2299
-5.66769e-10
-1.48424
1.25921
-5.27573e-10
-1.43896
1.2882
-6.00129e-10
-1.38782
1.31672
-5.55342e-10
-1.33084
1.3446
-6.26202e-10
-1.26809
1.37165
-5.79413e-10
-1.1997
1.39771
-6.47019e-10
-1.12585
1.4226
-6.02492e-10
-1.0468
1.44616
-6.6527e-10
-0.962851
1.46823
-6.26684e-10
-0.874344
1.48867
-6.8239e-10
-0.781669
1.50732
-6.51528e-10
-0.685247
1.52408
-6.97027e-10
-0.585527
1.53883
-6.72686e-10
-0.482981
1.55148
-7.02939e-10
-0.378101
1.56193
-6.79098e-10
-0.27139
1.57014
-6.91452e-10
-0.163363
1.57604
-7.44565e-10
-0.0545425
1.5796
-9.55113e-10
0.0545433
1.58079
-1.61567e-09
0.163363
1.5796
-7.60113e-10
0.27139
1.57605
-2.11387e-09
0.378101
1.57014
-1.09138e-09
1.56193
-1.27634e-09
-0.179655
0.477408
1.44715e-10
-0.212352
0.478901
1.92155e-10
-0.245063
0.480671
1.18486e-10
-0.27779
0.482721
1.30423e-10
-0.310534
0.485056
1.26818e-10
-0.343294
0.487677
1.20915e-10
-0.376072
0.490591
1.15154e-10
-0.408866
0.493802
1.0862e-10
-0.441674
0.497316
1.05327e-10
-0.474493
0.501139
1.01069e-10
-0.50732
0.505277
1.00132e-10
-0.540151
0.509738
9.74491e-11
-0.572979
0.514528
9.78117e-11
-0.605797
0.519656
9.59261e-11
-0.638597
0.525131
9.69947e-11
-0.671369
0.530962
9.55466e-11
-0.704099
0.537159
9.71811e-11
-0.736774
0.543731
9.62199e-11
-0.769378
0.55069
9.84452e-11
-0.801892
0.558047
9.81198e-11
-0.834295
0.565814
1.01051e-10
-0.866561
0.574003
1.01567e-10
-0.898665
0.582626
1.05336e-10
-0.930574
0.591698
1.0693e-10
-0.962254
0.601231
1.11683e-10
-0.993666
0.61124
1.14634e-10
-1.02477
0.621738
1.20535e-10
-1.05551
0.632741
1.25165e-10
-1.08583
0.644263
1.32407e-10
-1.11569
0.656318
1.39103e-10
-1.14501
0.668921
1.47909e-10
-1.17372
0.682086
1.57145e-10
-1.20174
0.695827
1.67783e-10
-1.22898
0.710158
1.80086e-10
-1.25536
0.72509
1.92895e-10
-1.28076
0.740636
2.09079e-10
-1.30508
0.756805
2.24397e-10
-1.3282
0.773606
2.45172e-10
-1.34999
0.791045
2.63528e-10
-1.3703
0.809127
2.90023e-10
-1.38899
0.827852
3.11947e-10
-1.4059
0.84722
3.45382e-10
-1.42086
0.867224
3.71543e-10
-1.4337
0.887854
4.13339e-10
-1.44422
0.909096
4.44458e-10
-1.45224
0.930929
4.96112e-10
-1.45755
0.953328
5.32891e-10
-1.45995
0.97626
5.95778e-10
-1.45923
0.999684
6.38725e-10
-1.45519
1.02355
7.13772e-10
-1.44761
1.04781
7.62971e-10
-1.4363
1.0724
8.50249e-10
-1.42107
1.09724
9.05099e-10
-1.40172
1.12225
1.00346e-09
-1.37811
1.14733
1.06256e-09
-1.35008
1.1724
1.16949e-09
-1.31753
1.19735
1.23076e-09
-1.28037
1.22205
1.3425e-09
-1.23855
1.24638
1.40338e-09
-1.19206
1.27023
1.51526e-09
-1.14093
1.29346
1.57301e-09
-1.08522
1.31594
1.67982e-09
-1.02505
1.33754
1.73169e-09
-0.960581
1.35813
1.82807e-09
-0.892005
1.37759
1.87169e-09
-0.819557
1.39579
1.95314e-09
-0.743506
1.41261
1.98789e-09
-0.664151
1.42797
2.05293e-09
-0.581821
1.44175
2.08314e-09
-0.496866
1.45388
2.13675e-09
-0.409658
1.46427
2.17605e-09
-0.320584
1.47286
2.23398e-09
-0.230045
1.4796
2.30734e-09
-0.138451
1.48445
2.37788e-09
-0.0462218
1.48737
2.43694e-09
0.046221
1.48835
2.35961e-09
0.138451
1.48737
2.3236e-09
0.230044
1.48445
2.62992e-09
0.320584
1.4796
2.52718e-09
1.47286
3.11113e-09
-0.169016
0.508132
-1.88139e-10
-0.199735
0.50962
-2.24328e-10
-0.230446
0.511383
-1.91305e-10
-0.261149
0.513424
-2.23262e-10
-0.291839
0.515746
-2.03357e-10
-0.322515
0.518353
-1.8484e-10
-0.353172
0.521248
-1.70302e-10
-0.383806