/*--------------------------------*- C++ -*----------------------------------*\
| =========                 |                                                 |
| \\      /  F ield         | OpenFOAM: The Open Source CFD Toolbox           |
|  \\    /   O peration     | Version:  2306                                  |
|   \\  /    A nd           | Website:  www.openfoam.com                      |
|    \\/     M anipulation  |                                                 |
\*---------------------------------------------------------------------------*/
FoamFile
{
    version     2.0;
    format      ascii;
    arch        "LSB;label=32;scalar=64";
    class       volVectorField;
    location    "12.5";
    object      U;
}
// * * * * * * * * * * * * * * * * * * * * * * * * * * * * * * * * * * * * * //

dimensions      [0 1 -1 0 0 0 0];

internalField   nonuniform List<vector> 
14400
(
(-0.00593175 0.00100792 -3.76431e-11)
(-0.00712966 0.00101289 -3.5222e-11)
(-0.00833384 0.00101876 -2.19768e-11)
(-0.00954535 0.00102554 -2.14318e-11)
(-0.0107653 0.00103326 -2.16635e-11)
(-0.0119948 0.00104195 -2.12573e-11)
(-0.013235 0.00105166 -2.21144e-11)
(-0.0144872 0.0010624 -2.17919e-11)
(-0.0157526 0.00107423 -2.28357e-11)
(-0.0170324 0.00108719 -2.24459e-11)
(-0.0183281 0.00110134 -2.36371e-11)
(-0.0196411 0.00111674 -2.31883e-11)
(-0.0209729 0.00113344 -2.45825e-11)
(-0.022325 0.00115152 -2.40749e-11)
(-0.0236992 0.00117107 -2.57156e-11)
(-0.0250971 0.00119217 -2.51253e-11)
(-0.0265207 0.00121492 -2.705e-11)
(-0.0279719 0.00123943 -2.63377e-11)
(-0.0294529 0.00126582 -2.85854e-11)
(-0.030966 0.00129424 -2.76991e-11)
(-0.0325136 0.00132484 -3.0313e-11)
(-0.0340983 0.00135778 -2.91871e-11)
(-0.035723 0.00139326 -3.22163e-11)
(-0.0373907 0.0014315 -3.07694e-11)
(-0.0391048 0.00147275 -3.42676e-11)
(-0.0408688 0.00151727 -3.23993e-11)
(-0.0426869 0.00156539 -3.64234e-11)
(-0.0445632 0.00161746 -3.40089e-11)
(-0.0465025 0.00167391 -3.86141e-11)
(-0.0485101 0.0017352 -3.54965e-11)
(-0.0505919 0.00180191 -4.07272e-11)
(-0.0527541 0.00187468 -3.67046e-11)
(-0.0550041 0.00195428 -4.25777e-11)
(-0.05735 0.00204164 -3.73826e-11)
(-0.0598007 0.00213786 -4.38524e-11)
(-0.0623666 0.00224429 -3.71109e-11)
(-0.0650595 0.00236259 -4.39985e-11)
(-0.0678928 0.00249481 -3.51489e-11)
(-0.070882 0.00264353 -4.20117e-11)
(-0.0740452 0.00281203 -3.01618e-11)
(-0.0774035 0.00300452 -3.61208e-11)
(-0.080982 0.00322645 -1.99103e-11)
(-0.0848105 0.00348496 -2.36669e-11)
(-0.0889248 0.00378947 -1.51948e-12)
(-0.0933687 0.00415251 -2.41188e-12)
(-0.0981954 0.00459087 2.5991e-11)
(-0.103471 0.00512714 2.37671e-11)
(-0.109278 0.0057919 5.57528e-11)
(-0.115721 0.00662675 3.09139e-11)
(-0.122932 0.00768852 6.42768e-11)
(-0.131078 0.00905531 -2.72121e-11)
(-0.140379 0.0108353 3.99847e-11)
(-0.151116 0.0131803 -1.58213e-10)
(-0.163658 0.0163119 1.32795e-11)
(-0.178506 0.0205814 -1.52376e-10)
(-0.196289 0.0266051 8.86731e-11)
(-0.217762 0.0355395 3.00146e-10)
(-0.24453 0.0497038 4.94315e-10)
(-0.281021 0.0736985 1.0507e-09)
(-0.333891 0.114142 1.22429e-09)
(-0.395138 0.181555 1.9212e-09)
(-0.419707 0.301405 1.83268e-09)
(-0.346476 0.356823 1.82275e-09)
(-0.291602 0.383194 1.52198e-09)
(-0.253639 0.398725 1.13647e-09)
(-0.22101 0.409329 9.65489e-10)
(-0.191726 0.416936 7.00808e-10)
(-0.165236 0.422499 6.84162e-10)
(-0.140921 0.426609 5.807e-10)
(-0.118255 0.429663 6.57003e-10)
(-0.0968495 0.431936 6.48964e-10)
(-0.0764033 0.433619 7.45128e-10)
(-0.0566776 0.434847 7.78993e-10)
(-0.0374809 0.43571 8.36437e-10)
(-0.0186664 0.436245 9.23384e-10)
(1.26705e-07 0.436434 8.28076e-10)
(0.0186666 0.436246 1.15289e-09)
(0.037481 0.43571 1.50923e-10)
(0.0566776 0.434848 2.86163e-09)
(0.0764032 0.433619 -9.43227e-11)
(-0.0087757 0.00548009 -3.87702e-11)
(-0.0105471 0.0055062 -3.93328e-11)
(-0.0123275 0.00553718 -2.50823e-11)
(-0.0141184 0.00557313 -2.48148e-11)
(-0.0159214 0.00561419 -2.46714e-11)
(-0.0177382 0.00566051 -2.46339e-11)
(-0.0195705 0.00571227 -2.51317e-11)
(-0.02142 0.00576966 -2.52697e-11)
(-0.0232886 0.00583291 -2.59191e-11)
(-0.0251782 0.00590226 -2.60899e-11)
(-0.0270906 0.005978 -2.68303e-11)
(-0.0290281 0.00606043 -2.70531e-11)
(-0.0309927 0.00614991 -2.79263e-11)
(-0.0329867 0.00624681 -2.82199e-11)
(-0.0350126 0.00635155 -2.92536e-11)
(-0.0370728 0.00646462 -2.96185e-11)
(-0.0391701 0.00658654 -3.08307e-11)
(-0.0413073 0.00671789 -3.12578e-11)
(-0.0434875 0.00685931 -3.26636e-11)
(-0.0457139 0.00701154 -3.31381e-11)
(-0.04799 0.00717537 -3.47513e-11)
(-0.0503195 0.0073517 -3.52546e-11)
(-0.0527064 0.00754153 -3.70882e-11)
(-0.0551552 0.00774599 -3.75965e-11)
(-0.0576705 0.00796634 -3.96609e-11)
(-0.0602573 0.008204 -4.01454e-11)
(-0.0629212 0.00846057 -4.24458e-11)
(-0.0656682 0.00873788 -4.28709e-11)
(-0.0685049 0.009038 -4.54021e-11)
(-0.0714385 0.00936328 -4.57214e-11)
(-0.0744769 0.00971644 -4.84577e-11)
(-0.0776287 0.0101006 -4.8607e-11)
(-0.0809037 0.0105193 -5.14845e-11)
(-0.0843124 0.0109768 -5.13674e-11)
(-0.0878667 0.011478 -5.42469e-11)
(-0.0915796 0.0120285 -5.3702e-11)
(-0.0954657 0.0126352 -5.62964e-11)
(-0.0995413 0.0133063 -5.50259e-11)
(-0.103825 0.0140512 -5.67694e-11)
(-0.108336 0.0148818 -5.42044e-11)
(-0.113099 0.0158122 -5.41019e-11)
(-0.118139 0.0168598 -4.92513e-11)
(-0.123485 0.018046 -4.59698e-11)
(-0.129169 0.0193975 -3.75459e-11)
(-0.135227 0.0209476 -3.05968e-11)
(-0.141701 0.0227387 -1.80645e-11)
(-0.148636 0.0248243 -1.17225e-11)
(-0.156081 0.0272732 3.1345e-12)
(-0.164094 0.0301742 -7.34924e-12)
(-0.172734 0.0336422 1.01497e-11)
(-0.182069 0.0378269 -4.65965e-11)
(-0.19217 0.0429238 -7.91242e-12)
(-0.203112 0.0491886 -1.1032e-10)
(-0.214972 0.0569569 -2.4638e-11)
(-0.227823 0.0666775 -2.95492e-11)
(-0.241711 0.0789728 6.61429e-11)
(-0.256576 0.0947448 3.46908e-10)
(-0.272191 0.115386 4.10845e-10)
(-0.288224 0.143381 8.06556e-10)
(-0.303713 0.183439 8.76752e-10)
(-0.313132 0.240293 1.05756e-09)
(-0.306734 0.30411 1.16609e-09)
(-0.282823 0.344418 1.02379e-09)
(-0.257019 0.370822 9.199e-10)
(-0.232009 0.389313 6.37513e-10)
(-0.20757 0.402901 5.59059e-10)
(-0.183886 0.413238 3.71121e-10)
(-0.16106 0.421244 3.5788e-10)
(-0.139065 0.427489 3.05933e-10)
(-0.117822 0.432359 3.38351e-10)
(-0.0972311 0.436132 3.65847e-10)
(-0.0771814 0.439007 4.05817e-10)
(-0.057554 0.441126 4.59606e-10)
(-0.0382297 0.442589 4.82602e-10)
(-0.0191027 0.443454 5.44666e-10)
(-2.80192e-08 0.443742 5.60103e-10)
(0.0191027 0.443454 6.20871e-10)
(0.0382297 0.442589 3.2227e-10)
(0.0575541 0.441127 1.11656e-09)
(0.0771815 0.439007 4.16415e-10)
(-0.00904867 0.0103301 -4.39198e-11)
(-0.0108746 0.0103783 -4.11711e-11)
(-0.0127094 0.0104357 -2.65078e-11)
(-0.0145547 0.0105023 -2.60325e-11)
(-0.016412 0.0105784 -2.55137e-11)
(-0.0182831 0.0106643 -2.54933e-11)
(-0.0201696 0.0107604 -2.56391e-11)
(-0.0220733 0.0108669 -2.58275e-11)
(-0.0239959 0.0109843 -2.60887e-11)
(-0.0259393 0.011113 -2.63074e-11)
(-0.0279055 0.0112536 -2.66015e-11)
(-0.0298965 0.0114066 -2.68606e-11)
(-0.0319143 0.0115726 -2.72099e-11)
(-0.0339614 0.0117523 -2.75214e-11)
(-0.0360399 0.0119465 -2.79349e-11)
(-0.0381524 0.012156 -2.82943e-11)
(-0.0403014 0.0123818 -2.87716e-11)
(-0.0424897 0.012625 -2.91659e-11)
(-0.0447203 0.0128867 -2.97032e-11)
(-0.0469962 0.0131681 -3.01153e-11)
(-0.0493207 0.0134708 -3.07098e-11)
(-0.0516975 0.0137963 -3.11211e-11)
(-0.0541302 0.0141463 -3.17733e-11)
(-0.056623 0.014523 -3.21675e-11)
(-0.0591802 0.0149285 -3.28874e-11)
(-0.0618065 0.0153652 -3.32568e-11)
(-0.064507 0.015836 -3.40715e-11)
(-0.0672871 0.016344 -3.44265e-11)
(-0.0701528 0.0168928 -3.53914e-11)
(-0.0731106 0.0174863 -3.57749e-11)
(-0.0761673 0.0181291 -3.69878e-11)
(-0.0793307 0.0188265 -3.74959e-11)
(-0.0826089 0.0195842 -3.91144e-11)
(-0.0860112 0.0204091 -3.99232e-11)
(-0.0895473 0.021309 -4.21777e-11)
(-0.0932281 0.0222927 -4.35739e-11)
(-0.0970654 0.0233708 -4.6768e-11)
(-0.101072 0.0245552 -4.91694e-11)
(-0.105263 0.02586 -5.36509e-11)
(-0.109654 0.0273015 -5.75965e-11)
(-0.114261 0.0288989 -6.37051e-11)
(-0.119103 0.030675 -6.98133e-11)
(-0.124201 0.0326563 -7.7891e-11)
(-0.129577 0.0348746 -8.68349e-11)
(-0.135255 0.0373673 -9.75822e-11)
(-0.141259 0.0401793 -1.10308e-10)
(-0.147617 0.0433642 -1.25916e-10)
(-0.154354 0.046986 -1.43693e-10)
(-0.161496 0.0511221 -1.69246e-10)
(-0.169064 0.0558655 -1.90948e-10)
(-0.177074 0.0613289 -2.31057e-10)
(-0.185531 0.0676489 -2.46958e-10)
(-0.194418 0.074992 -2.83165e-10)
(-0.20369 0.0835612 -2.81926e-10)
(-0.213255 0.0936069 -2.39006e-10)
(-0.222954 0.105442 -2.31907e-10)
(-0.232512 0.119468 -4.70358e-11)
(-0.241482 0.136196 -4.71461e-11)
(-0.249085 0.156293 1.74638e-10)
(-0.253831 0.180557 1.62101e-10)
(-0.253248 0.209265 2.41546e-10)
(-0.245337 0.239638 2.06685e-10)
(-0.231209 0.265018 1.09815e-10)
(-0.214434 0.285599 3.39375e-11)
(-0.196469 0.302519 -1.13454e-10)
(-0.177992 0.31655 -1.86344e-10)
(-0.159398 0.328223 -2.83588e-10)
(-0.14089 0.337918 -3.22241e-10)
(-0.12257 0.345925 -3.47824e-10)
(-0.10448 0.352473 -3.54095e-10)
(-0.0866287 0.357746 -3.34464e-10)
(-0.0690002 0.361891 -3.39301e-10)
(-0.0515634 0.36502 -3.28894e-10)
(-0.0342822 0.367213 -2.96821e-10)
(-0.0171288 0.368518 -2.855e-10)
(-5.02282e-08 0.368955 -2.2626e-10)
(0.0171288 0.368518 -2.04876e-10)
(0.0342821 0.367213 -1.5085e-10)
(0.0515634 0.365021 -1.61219e-10)
(0.0690002 0.361892 -1.59694e-10)
(-0.0089369 0.0151855 -3.35742e-11)
(-0.0107394 0.015255 -3.5009e-11)
(-0.0125503 0.0153376 -2.20521e-11)
(-0.014371 0.0154336 -2.20469e-11)
(-0.0162029 0.0155434 -2.16685e-11)
(-0.0180477 0.0156672 -2.17221e-11)
(-0.0199068 0.0158057 -2.18301e-11)
(-0.0217819 0.0159592 -2.20608e-11)
(-0.0236746 0.0161283 -2.22738e-11)
(-0.0255867 0.0163137 -2.25686e-11)
(-0.0275199 0.016516 -2.28261e-11)
(-0.0294761 0.0167361 -2.31963e-11)
(-0.0314571 0.0169748 -2.35185e-11)
(-0.0334651 0.017233 -2.39774e-11)
(-0.035502 0.017512 -2.43742e-11)
(-0.0375701 0.0178127 -2.49253e-11)
(-0.0396717 0.0181365 -2.54011e-11)
(-0.0418091 0.0184849 -2.60446e-11)
(-0.0439851 0.0188594 -2.66031e-11)
(-0.0462022 0.0192618 -2.7338e-11)
(-0.0484633 0.019694 -2.79852e-11)
(-0.0507714 0.0201582 -2.88114e-11)
(-0.0531297 0.0206568 -2.95579e-11)
(-0.0555416 0.0211924 -3.0479e-11)
(-0.0580108 0.021768 -3.13449e-11)
(-0.0605409 0.0223869 -3.23723e-11)
(-0.0631361 0.0230527 -3.33937e-11)
(-0.0658008 0.0237695 -3.45553e-11)
(-0.0685396 0.0245419 -3.57923e-11)
(-0.0713573 0.0253752 -3.71414e-11)
(-0.0742593 0.0262749 -3.86893e-11)
(-0.0772511 0.0272478 -4.03194e-11)
(-0.0803386 0.0283012 -4.23217e-11)
(-0.0835282 0.0294434 -4.43953e-11)
(-0.0868264 0.0306838 -4.70446e-11)
(-0.0902404 0.0320334 -4.97968e-11)
(-0.0937776 0.0335044 -5.33443e-11)
(-0.0974456 0.0351108 -5.71192e-11)
(-0.101252 0.0368687 -6.18475e-11)
(-0.105206 0.0387967 -6.70802e-11)
(-0.109315 0.0409159 -7.3262e-11)
(-0.113587 0.043251 -8.04894e-11)
(-0.118029 0.0458302 -8.85138e-11)
(-0.122649 0.0486864 -9.84347e-11)
(-0.127452 0.0518574 -1.08427e-10)
(-0.132441 0.0553872 -1.21811e-10)
(-0.137616 0.0593267 -1.3455e-10)
(-0.142974 0.0637347 -1.5285e-10)
(-0.148504 0.068679 -1.6939e-10)
(-0.154188 0.0742375 -1.93833e-10)
(-0.159997 0.0804993 -2.13724e-10)
(-0.165887 0.0875651 -2.43473e-10)
(-0.171794 0.0955474 -2.57014e-10)
(-0.177629 0.10457 -2.90237e-10)
(-0.183266 0.114766 -2.71956e-10)
(-0.188538 0.126274 -3.09538e-10)
(-0.193213 0.139231 -2.46834e-10)
(-0.196978 0.153763 -2.87202e-10)
(-0.199403 0.169952 -2.24534e-10)
(-0.199859 0.187753 -2.66488e-10)
(-0.197527 0.206731 -2.67458e-10)
(-0.191824 0.225709 -3.16336e-10)
(-0.183104 0.243161 -3.85107e-10)
(-0.172322 0.258723 -4.39364e-10)
(-0.160135 0.272413 -5.24104e-10)
(-0.146979 0.284345 -5.68629e-10)
(-0.133157 0.294658 -6.2354e-10)
(-0.118887 0.303492 -6.47237e-10)
(-0.104325 0.310975 -6.63952e-10)
(-0.089579 0.317223 -6.70713e-10)
(-0.0747257 0.322338 -6.68648e-10)
(-0.0598141 0.326409 -6.69661e-10)
(-0.0448735 0.329504 -6.74387e-10)
(-0.0299215 0.331679 -6.67291e-10)
(-0.0149765 0.33297 -6.84332e-10)
(1.456e-07 0.3334 -6.50757e-10)
(0.0149768 0.33297 -8.11777e-10)
(0.0299218 0.331679 2.66157e-11)
(0.0448737 0.329504 -2.47336e-09)
(0.0598143 0.326408 8.78193e-10)
(-0.00874711 0.0199335 -4.19286e-11)
(-0.0105103 0.0200225 -3.74877e-11)
(-0.012281 0.0201282 -2.4002e-11)
(-0.0140606 0.0202511 -2.33068e-11)
(-0.0158504 0.0203916 -2.25775e-11)
(-0.0176517 0.02055 -2.23467e-11)
(-0.0194661 0.0207271 -2.21732e-11)
(-0.0212948 0.0209233 -2.20993e-11)
(-0.0231393 0.0211394 -2.19756e-11)
(-0.0250012 0.0213761 -2.18732e-11)
(-0.026882 0.0216344 -2.17124e-11)
(-0.0287833 0.0219151 -2.15702e-11)
(-0.0307067 0.0222192 -2.13689e-11)
(-0.032654 0.0225481 -2.11744e-11)
(-0.034627 0.0229029 -2.09132e-11)
(-0.0366275 0.023285 -2.06375e-11)
(-0.0386574 0.023696 -2.02857e-11)
(-0.0407187 0.0241377 -1.98871e-11)
(-0.0428135 0.0246119 -1.94037e-11)
(-0.0449441 0.0251206 -1.88261e-11)
(-0.0471126 0.0256662 -1.81588e-11)
(-0.0493214 0.0262512 -1.73295e-11)
(-0.0515731 0.0268784 -1.64116e-11)
(-0.0538701 0.0275508 -1.52389e-11)
(-0.0562153 0.0282718 -1.3989e-11)
(-0.0586113 0.0290453 -1.23557e-11)
(-0.0610613 0.0298752 -1.06743e-11)
(-0.0635681 0.0307663 -8.44034e-12)
(-0.066135 0.0317236 -6.20176e-12)
(-0.0687652 0.0327528 -3.19821e-12)
(-0.0714622 0.0338603 -2.57771e-13)
(-0.0742292 0.0350531 3.79824e-12)
(-0.0770699 0.0363389 7.5902e-12)
(-0.0799878 0.0377267 1.2788e-11)
(-0.0829864 0.0392261 1.77557e-11)
(-0.086069 0.0408481 2.45058e-11)
(-0.089239 0.0426051 3.08726e-11)
(-0.0924993 0.0445107 3.95205e-11)
(-0.0958525 0.0465804 4.78204e-11)
(-0.0993007 0.0488314 5.88126e-11)
(-0.102845 0.0512832 7.01228e-11)
(-0.106486 0.0539575 8.48383e-11)
(-0.110221 0.0568785 9.76275e-11)
(-0.114049 0.0600734 1.14162e-10)
(-0.117963 0.0635725 1.33545e-10)
(-0.121953 0.0674093 1.55987e-10)
(-0.126009 0.071621 1.80472e-10)
(-0.13011 0.0762484 2.07832e-10)
(-0.134233 0.0813359 2.38889e-10)
(-0.138345 0.0869314 2.71679e-10)
(-0.142403 0.0930859 3.09635e-10)
(-0.14635 0.0998523 3.48044e-10)
(-0.150118 0.107284 3.93408e-10)
(-0.153615 0.115434 4.37335e-10)
(-0.156732 0.124348 4.90925e-10)
(-0.159333 0.134065 5.39145e-10)
(-0.161252 0.144602 5.94961e-10)
(-0.162294 0.155952 6.44775e-10)
(-0.162231 0.168063 6.83129e-10)
(-0.160806 0.180808 7.28546e-10)
(-0.157766 0.193928 7.30188e-10)
(-0.152967 0.206986 7.64082e-10)
(-0.146514 0.219491 7.32937e-10)
(-0.138681 0.231172 7.54825e-10)
(-0.12973 0.241897 7.13818e-10)
(-0.11988 0.251605 7.28961e-10)
(-0.109318 0.260278 6.97412e-10)
(-0.0981946 0.267923 7.09626e-10)
(-0.0866372 0.274563 6.92426e-10)
(-0.0747467 0.280229 6.99841e-10)
(-0.0626048 0.284954 6.89706e-10)
(-0.0502763 0.288771 6.85419e-10)
(-0.0378127 0.291711 6.66013e-10)
(-0.0252571 0.293796 6.40169e-10)
(-0.0126527 0.295043 5.90086e-10)
(-7.90639e-08 0.295459 5.47493e-10)
(0.0126526 0.295043 6.5738e-10)
(0.025257 0.293796 -1.67302e-10)
(0.0378126 0.291711 2.29025e-09)
(0.0502763 0.288771 -1.10659e-09)
(-0.00851057 0.024569 -2.47013e-11)
(-0.0102248 0.0246754 -2.74495e-11)
(-0.0119456 0.0248018 -1.66395e-11)
(-0.0136742 0.0249487 -1.6739e-11)
(-0.0154117 0.0251164 -1.62954e-11)
(-0.0171593 0.0253056 -1.62613e-11)
(-0.0189183 0.0255169 -1.61694e-11)
(-0.0206897 0.025751 -1.62339e-11)
(-0.0224749 0.0260086 -1.61989e-11)
(-0.0242751 0.0262905 -1.62821e-11)
(-0.0260916 0.0265979 -1.6248e-11)
(-0.0279257 0.0269317 -1.63518e-11)
(-0.0297789 0.027293 -1.63206e-11)
(-0.0316524 0.0276833 -1.64445e-11)
(-0.0335478 0.0281038 -1.6408e-11)
(-0.0354664 0.0285562 -1.65423e-11)
(-0.0374098 0.0290422 -1.64861e-11)
(-0.0393796 0.0295637 -1.66161e-11)
(-0.0413773 0.0301226 -1.65214e-11)
(-0.0434045 0.0307213 -1.66264e-11)
(-0.0454629 0.0313622 -1.6469e-11)
(-0.0475542 0.032048 -1.65221e-11)
(-0.0496802 0.0327816 -1.62713e-11)
(-0.0518426 0.0335664 -1.62383e-11)
(-0.0540432 0.0344059 -1.58581e-11)
(-0.0562837 0.0353039 -1.56977e-11)
(-0.0585661 0.0362647 -1.51455e-11)
(-0.0608921 0.0372932 -1.48114e-11)
(-0.0632634 0.0383943 -1.404e-11)
(-0.0656817 0.0395739 -1.34822e-11)
(-0.0681488 0.0408382 -1.2443e-11)
(-0.070666 0.042194 -1.16164e-11)
(-0.0732347 0.0436489 -1.02753e-11)
(-0.0758561 0.0452114 -9.01029e-12)
(-0.078531 0.0468904 -7.06265e-12)
(-0.0812597 0.0486963 -5.44702e-12)
(-0.0840422 0.05064 -3.20453e-12)
(-0.0868779 0.0527338 -1.29584e-12)
(-0.0897653 0.0549911 1.77842e-12)
(-0.0927019 0.0574266 4.1427e-12)
(-0.0956842 0.0600564 7.58367e-12)
(-0.0987071 0.0628981 1.04215e-11)
(-0.101764 0.0659708 1.52993e-11)
(-0.104845 0.0692952 1.86833e-11)
(-0.107938 0.0728935 2.53138e-11)
(-0.11103 0.0767895 2.94537e-11)
(-0.114101 0.0810084 3.81021e-11)
(-0.117127 0.0855766 4.29784e-11)
(-0.12008 0.090521 5.3711e-11)
(-0.122925 0.0958688 5.93113e-11)
(-0.12562 0.101647 7.14476e-11)
(-0.128115 0.107879 7.78315e-11)
(-0.130349 0.114586 8.99697e-11)
(-0.132253 0.121784 9.74494e-11)
(-0.133747 0.129478 1.07776e-10)
(-0.134739 0.137664 1.16821e-10)
(-0.135129 0.146318 1.22618e-10)
(-0.134807 0.155396 1.33417e-10)
(-0.13366 0.164826 1.31027e-10)
(-0.131577 0.174497 1.42801e-10)
(-0.128469 0.184257 1.30966e-10)
(-0.124293 0.193912 1.42507e-10)
(-0.119082 0.20326 1.25577e-10)
(-0.112926 0.212147 1.36871e-10)
(-0.105932 0.220462 1.22397e-10)
(-0.09821 0.228131 1.34581e-10)
(-0.0898668 0.235104 1.27257e-10)
(-0.0810001 0.241352 1.40472e-10)
(-0.0716988 0.246859 1.38857e-10)
(-0.0620417 0.251619 1.5089e-10)
(-0.0520985 0.255634 1.47688e-10)
(-0.0419301 0.258907 1.52936e-10)
(-0.0315899 0.261446 1.38042e-10)
(-0.0211268 0.263257 1.2633e-10)
(-0.0105902 0.264342 8.85633e-11)
(6.66006e-08 0.264705 7.08372e-11)
(0.0105903 0.264342 -5.40937e-12)
(0.0211269 0.263257 1.01524e-10)
(0.03159 0.261447 -3.46284e-10)
(0.0419301 0.258908 3.9941e-10)
(-0.00823458 0.029062 -3.62213e-11)
(-0.00989174 0.0291833 -2.99984e-11)
(-0.0115545 0.0293275 -1.96641e-11)
(-0.0132238 0.0294949 -1.89344e-11)
(-0.0149007 0.0296861 -1.83529e-11)
(-0.016586 0.0299017 -1.81523e-11)
(-0.0182809 0.0301422 -1.79774e-11)
(-0.0199862 0.0304084 -1.79181e-11)
(-0.0217029 0.0307013 -1.7767e-11)
(-0.0234322 0.0310215 -1.76931e-11)
(-0.025175 0.0313703 -1.75069e-11)
(-0.0269323 0.0317487 -1.74081e-11)
(-0.0287052 0.0321579 -1.71833e-11)
(-0.0304947 0.0325993 -1.70502e-11)
(-0.032302 0.0330743 -1.67704e-11)
(-0.0341281 0.0335847 -1.65839e-11)
(-0.035974 0.034132 -1.62253e-11)
(-0.0378409 0.0347184 -1.59584e-11)
(-0.0397299 0.0353457 -1.54896e-11)
(-0.041642 0.0360165 -1.51068e-11)
(-0.0435783 0.0367331 -1.44876e-11)
(-0.0455399 0.0374982 -1.39423e-11)
(-0.0475277 0.0383148 -1.31215e-11)
(-0.0495429 0.0391861 -1.23553e-11)
(-0.0515862 0.0401157 -1.12697e-11)
(-0.0536587 0.0411072 -1.02097e-11)
(-0.055761 0.0421648 -8.7825e-12)
(-0.0578939 0.043293 -7.34307e-12)
(-0.0600579 0.0444967 -5.48109e-12)
(-0.0622535 0.0457813 -3.56074e-12)
(-0.0644807 0.0471524 -1.16154e-12)
(-0.0667395 0.0486163 1.39638e-12)
(-0.0690295 0.0501799 4.44315e-12)
(-0.07135 0.0518505 7.69249e-12)
(-0.0736998 0.0536361 1.15474e-11)
(-0.076077 0.0555454 1.56652e-11)
(-0.0784794 0.0575876 2.04588e-11)
(-0.0809038 0.0597729 2.55956e-11)
(-0.0833461 0.0621119 3.14536e-11)
(-0.0858012 0.0646164 3.76978e-11)
(-0.0882627 0.0672985 4.46707e-11)
(-0.0907228 0.0701714 5.2119e-11)
(-0.0931717 0.0732487 6.02838e-11)
(-0.095598 0.0765448 6.8975e-11)
(-0.0979876 0.0800746 7.81726e-11)
(-0.100324 0.0838531 8.80166e-11)
(-0.102588 0.0878955 9.77722e-11)
(-0.104755 0.0922166 1.08497e-10)
(-0.1068 0.0968305 1.17806e-10)
(-0.108691 0.10175 1.28924e-10)
(-0.110393 0.106985 1.36114e-10)
(-0.111864 0.112542 1.46984e-10)
(-0.113061 0.118426 1.49897e-10)
(-0.113932 0.124633 1.59893e-10)
(-0.114423 0.131154 1.56482e-10)
(-0.114475 0.137968 1.65149e-10)
(-0.114027 0.145045 1.5423e-10)
(-0.11302 0.152342 1.61304e-10)
(-0.111394 0.159801 1.43192e-10)
(-0.109101 0.167345 1.48568e-10)
(-0.106104 0.174885 1.25577e-10)
(-0.102389 0.182316 1.29472e-10)
(-0.097969 0.189535 1.05567e-10)
(-0.0928795 0.196448 1.08626e-10)
(-0.0871707 0.202979 8.7738e-11)
(-0.0809001 0.209064 9.05932e-11)
(-0.0741289 0.214655 7.47886e-11)
(-0.0669184 0.219715 7.7473e-11)
(-0.0593288 0.224217 6.64546e-11)
(-0.0514173 0.228143 6.81431e-11)
(-0.0432382 0.231479 5.96376e-11)
(-0.034842 0.234217 5.68054e-11)
(-0.026276 0.236351 4.76636e-11)
(-0.0175859 0.237879 3.19069e-11)
(-0.00881827 0.238797 1.40246e-11)
(-4.52228e-10 0.239104 -1.01915e-11)
(0.00881827 0.238797 -8.54476e-13)
(0.0175859 0.237878 -1.70599e-10)
(0.026276 0.236351 2.72783e-10)
(0.034842 0.234217 -3.2564e-10)
(-0.00792528 0.0333944 -1.30221e-11)
(-0.00951864 0.0335282 -1.69247e-11)
(-0.0111165 0.033687 -9.7502e-12)
(-0.0127198 0.0338715 -1.01126e-11)
(-0.014329 0.034082 -9.82864e-12)
(-0.0159451 0.0343191 -9.89828e-12)
(-0.0175688 0.0345836 -9.80982e-12)
(-0.0192009 0.0348761 -9.91609e-12)
(-0.020842 0.0351976 -9.86614e-12)
(-0.022493 0.0355489 -9.99046e-12)
(-0.0241547 0.035931 -9.94554e-12)
(-0.0258277 0.0363451 -1.00947e-11)
(-0.0275128 0.0367924 -1.00533e-11)
(-0.0292108 0.0372743 -1.02287e-11)
(-0.0309224 0.0377922 -1.01837e-11)
(-0.0326483 0.0383478 -1.03813e-11)
(-0.0343891 0.0389427 -1.03221e-11)
(-0.0361455 0.0395788 -1.05346e-11)
(-0.0379181 0.0402582 -1.04472e-11)
(-0.0397076 0.0409831 -1.06644e-11)
(-0.0415144 0.0417558 -1.05305e-11)
(-0.0433391 0.042579 -1.0738e-11)
(-0.045182 0.0434555 -1.05342e-11)
(-0.0470434 0.0443882 -1.0713e-11)
(-0.0489236 0.0453805 -1.04103e-11)
(-0.0508227 0.0464357 -1.05379e-11)
(-0.0527405 0.0475577 -1.01025e-11)
(-0.054677 0.0487506 -1.01532e-11)
(-0.0566317 0.0500187 -9.54762e-12)
(-0.0586038 0.0513667 -9.49347e-12)
(-0.0605926 0.0527996 -8.67881e-12)
(-0.0625967 0.0543229 -8.49083e-12)
(-0.0646145 0.0559422 -7.43377e-12)
(-0.066644 0.0576638 -7.09291e-12)
(-0.0686826 0.0594943 -5.7658e-12)
(-0.0707272 0.0614404 -5.25567e-12)
(-0.0727739 0.0635097 -3.65443e-12)
(-0.0748183 0.0657099 -2.93957e-12)
(-0.0768547 0.0680491 -9.78723e-13)
(-0.0788768 0.0705358 -1.24077e-13)
(-0.080877 0.0731788 1.85878e-12)
(-0.0828463 0.0759871 2.84202e-12)
(-0.0847744 0.0789698 4.89085e-12)
(-0.0866492 0.0821361 5.99232e-12)
(-0.0884571 0.0854949 7.7776e-12)
(-0.0901822 0.0890549 8.91321e-12)
(-0.0918065 0.092824 9.94845e-12)
(-0.0933098 0.0968092 1.10236e-11)
(-0.0946693 0.101016 1.05823e-11)
(-0.0958598 0.105448 1.14841e-11)
(-0.0968531 0.110108 8.60527e-12)
(-0.097619 0.114992 9.23902e-12)
(-0.0981246 0.120096 2.97333e-12)
(-0.098335 0.12541 3.22049e-12)
(-0.0982139 0.130918 -7.18385e-12)
(-0.0977245 0.136599 -7.1178e-12)
(-0.0968304 0.142425 -2.14399e-11)
(-0.0954971 0.148358 -2.14023e-11)
(-0.0936941 0.154356 -3.85088e-11)
(-0.0913969 0.160366 -3.82304e-11)
(-0.0885893 0.166331 -5.61409e-11)
(-0.0852663 0.172188 -5.53551e-11)
(-0.0814347 0.177876 -7.18543e-11)
(-0.0771128 0.183333 -7.03956e-11)
(-0.0723272 0.188508 -8.38172e-11)
(-0.0671112 0.193354 -8.1723e-11)
(-0.061502 0.19783 -9.14972e-11)
(-0.0555396 0.201905 -8.90845e-11)
(-0.049265 0.20555 -9.51945e-11)
(-0.0427197 0.208745 -9.20513e-11)
(-0.0359447 0.211472 -9.68389e-11)
(-0.0289802 0.21372 -9.76283e-11)
(-0.0218652 0.215478 -9.92066e-11)
(-0.0146388 0.21674 -1.00558e-10)
(-0.00734134 0.217499 -1.0486e-10)
(7.10384e-10 0.217753 -1.10703e-10)
(0.00734134 0.217499 -1.15018e-10)
(0.0146388 0.21674 -1.16849e-10)
(0.0218652 0.215478 -1.32496e-10)
(0.0289802 0.21372 -1.4709e-10)
(-0.00758901 0.0375498 -2.76045e-11)
(-0.00911318 0.0376933 -2.09594e-11)
(-0.0106408 0.0378637 -1.4142e-11)
(-0.0121725 0.0380615 -1.3472e-11)
(-0.0137088 0.038287 -1.30779e-11)
(-0.0152502 0.038541 -1.29556e-11)
(-0.0167973 0.038824 -1.28436e-11)
(-0.0183507 0.0391369 -1.28588e-11)
(-0.0199109 0.0394803 -1.27705e-11)
(-0.0214783 0.0398552 -1.28076e-11)
(-0.0230535 0.0402627 -1.27124e-11)
(-0.024637 0.0407037 -1.27648e-11)
(-0.0262293 0.0411795 -1.26641e-11)
(-0.0278306 0.0416913 -1.27291e-11)
(-0.0294416 0.0422406 -1.26172e-11)
(-0.0310624 0.0428289 -1.26897e-11)
(-0.0326935 0.0434577 -1.25579e-11)
(-0.0343351 0.044129 -1.26308e-11)
(-0.0359874 0.0448445 -1.24685e-11)
(-0.0376506 0.0456064 -1.25325e-11)
(-0.0393248 0.0464168 -1.23265e-11)
(-0.0410099 0.047278 -1.23701e-11)
(-0.0427058 0.0481927 -1.21048e-11)
(-0.0444123 0.0491635 -1.21149e-11)
(-0.046129 0.0501934 -1.1773e-11)
(-0.0478554 0.0512853 -1.17367e-11)
(-0.0495909 0.0524426 -1.13018e-11)
(-0.0513344 0.0536689 -1.12086e-11)
(-0.0530849 0.0549678 -1.06686e-11)
(-0.054841 0.0563433 -1.05138e-11)
(-0.0566009 0.0577995 -9.86572e-12)
(-0.0583627 0.059341 -9.65452e-12)
(-0.060124 0.0609723 -8.91272e-12)
(-0.0618818 0.0626983 -8.66609e-12)
(-0.0636329 0.0645242 -7.87191e-12)
(-0.0653733 0.0664552 -7.63269e-12)
(-0.0670985 0.0684968 -6.86889e-12)
(-0.0688034 0.0706547 -6.7054e-12)
(-0.0704818 0.0729346 -6.10836e-12)
(-0.072127 0.0753424 -6.13537e-12)
(-0.0737313 0.0778839 -5.94033e-12)
(-0.0752857 0.0805648 -6.29991e-12)
(-0.0767803 0.0833906 -6.80503e-12)
(-0.0782039 0.0863666 -7.67537e-12)
(-0.0795442 0.0894974 -9.31324e-12)
(-0.0807871 0.0927872 -1.08945e-11)
(-0.0819174 0.096239 -1.41844e-11)
(-0.0829184 0.0998548 -1.66812e-11)
(-0.0837717 0.103635 -2.22183e-11)
(-0.0844576 0.107579 -2.58042e-11)
(-0.084955 0.111683 -3.41603e-11)
(-0.0852417 0.115942 -3.89313e-11)
(-0.0852944 0.120346 -5.04729e-11)
(-0.0850895 0.124884 -5.63891e-11)
(-0.0846029 0.129539 -7.10721e-11)
(-0.0838115 0.134293 -7.79053e-11)
(-0.082693 0.13912 -9.50844e-11)
(-0.0812275 0.143994 -1.02435e-10)
(-0.0793982 0.14888 -1.20881e-10)
(-0.0771925 0.153744 -1.28249e-10)
(-0.0746031 0.158545 -1.46363e-10)
(-0.0716284 0.163242 -1.53237e-10)
(-0.0682737 0.167795 -1.69484e-10)
(-0.06455 0.172163 -1.75479e-10)
(-0.0604741 0.176308 -1.88748e-10)
(-0.0560668 0.180196 -1.93669e-10)
(-0.0513529 0.183796 -2.03458e-10)
(-0.0463596 0.187082 -2.07273e-10)
(-0.0411158 0.19003 -2.13638e-10)
(-0.035652 0.192621 -2.1627e-10)
(-0.029999 0.194839 -2.1954e-10)
(-0.0241884 0.196671 -2.21593e-10)
(-0.0182516 0.198107 -2.20897e-10)
(-0.0122204 0.199138 -2.23768e-10)
(-0.00612837 0.19976 -2.19719e-10)
(2.02556e-08 0.199968 -2.19232e-10)
(0.00612841 0.19976 -2.35591e-10)
(0.0122205 0.199138 -9.38176e-11)
(0.0182516 0.198107 -5.2083e-10)
(0.0241885 0.196671 -1.18523e-11)
(-0.00723215 0.0415155 -3.4415e-12)
(-0.00868306 0.0416662 -7.60014e-12)
(-0.0101364 0.0418451 -3.81269e-12)
(-0.0115925 0.0420525 -4.29493e-12)
(-0.0130519 0.042289 -4.16148e-12)
(-0.0145148 0.0425552 -4.30897e-12)
(-0.0159815 0.0428515 -4.25709e-12)
(-0.0174525 0.0431788 -4.40697e-12)
(-0.0189281 0.0435377 -4.38434e-12)
(-0.0204084 0.0439292 -4.55979e-12)
(-0.0218939 0.0443541 -4.55372e-12)
(-0.0233847 0.0448135 -4.76394e-12)
(-0.024881 0.0453085 -4.77381e-12)
(-0.026383 0.0458403 -5.02198e-12)
(-0.0278908 0.0464101 -5.04504e-12)
(-0.0294045 0.0470194 -5.33091e-12)
(-0.030924 0.0476696 -5.3632e-12)
(-0.0324494 0.0483624 -5.68493e-12)
(-0.0339805 0.0490994 -5.72106e-12)
(-0.0355171 0.0498824 -6.07489e-12)
(-0.0370588 0.0507136 -6.10734e-12)
(-0.0386054 0.0515948 -6.48728e-12)
(-0.0401563 0.0525283 -6.50634e-12)
(-0.0417107 0.0535165 -6.9045e-12)
(-0.043268 0.0545619 -6.89906e-12)
(-0.0448271 0.055667 -7.30651e-12)
(-0.0463869 0.0568346 -7.26554e-12)
(-0.047946 0.0580677 -7.67357e-12)
(-0.0495028 0.0593692 -7.58892e-12)
(-0.0510554 0.0607425 -7.99074e-12)
(-0.0526017 0.0621907 -7.86098e-12)
(-0.0541391 0.0637174 -8.25362e-12)
(-0.0556648 0.0653262 -8.08978e-12)
(-0.0571757 0.0670207 -8.47628e-12)
(-0.0586678 0.0688046 -8.30914e-12)
(-0.0601372 0.070682 -8.70101e-12)
(-0.061579 0.0726565 -8.5904e-12)
(-0.062988 0.074732 -9.00898e-12)
(-0.0643583 0.0769124 -9.05494e-12)
(-0.0656831 0.0792013 -9.53392e-12)
(-0.0669553 0.0816022 -9.88708e-12)
(-0.0681666 0.0841184 -1.04681e-11)
(-0.0693081 0.0867528 -1.13329e-11)
(-0.07037 0.0895077 -1.20606e-11)
(-0.0713415 0.0923849 -1.36985e-11)
(-0.0722112 0.0953856 -1.46145e-11)
(-0.0729663 0.0985098 -1.73261e-11)
(-0.0735937 0.101757 -1.84553e-11)
(-0.0740789 0.105124 -2.25458e-11)
(-0.0744071 0.108608 -2.38877e-11)
(-0.0745626 0.112203 -2.9599e-11)
(-0.0745295 0.115902 -3.1107e-11)
(-0.0742915 0.119696 -3.85429e-11)
(-0.0738324 0.123572 -4.0127e-11)
(-0.0731365 0.127516 -4.91332e-11)
(-0.0721891 0.131512 -5.06609e-11)
(-0.0709764 0.13554 -6.08063e-11)
(-0.0694867 0.139578 -6.21138e-11)
(-0.0677107 0.143601 -7.27042e-11)
(-0.0656418 0.147584 -7.36463e-11)
(-0.0632769 0.151498 -8.38628e-11)
(-0.0606164 0.155314 -8.43606e-11)
(-0.0576647 0.159003 -9.34381e-11)
(-0.0544298 0.162538 -9.35144e-11)
(-0.0509234 0.16589 -1.00888e-10)
(-0.0471601 0.169035 -1.00662e-10)
(-0.0431572 0.171949 -1.05988e-10)
(-0.0389343 0.174611 -1.05582e-10)
(-0.0345125 0.177002 -1.08569e-10)
(-0.0299147 0.179106 -1.07966e-10)
(-0.0251646 0.180909 -1.08024e-10)
(-0.0202864 0.1824 -1.07083e-10)
(-0.0153053 0.18357 -1.03118e-10)
(-0.0102469 0.184411 -1.01223e-10)
(-0.00513813 0.184918 -9.43473e-11)
(-1.52428e-08 0.185088 -9.23726e-11)
(0.0051381 0.184918 -7.80811e-11)
(0.0102469 0.184411 -8.65327e-11)
(0.0153053 0.18357 -4.87444e-11)
(0.0202864 0.1824 -1.85488e-10)
(-0.00686088 0.0452825 -1.80572e-11)
(-0.00823576 0.0454379 -1.22163e-11)
(-0.00961209 0.0456223 -8.59728e-12)
(-0.0109901 0.045836 -8.05116e-12)
(-0.0123699 0.0460795 -7.81993e-12)
(-0.0137518 0.0463533 -7.77089e-12)
(-0.0151359 0.046658 -7.71085e-12)
(-0.0165224 0.0469942 -7.7769e-12)
(-0.0179113 0.0473626 -7.73947e-12)
(-0.0193028 0.047764 -7.84638e-12)
(-0.0206968 0.0481992 -7.8231e-12)
(-0.0220935 0.0486691 -7.96869e-12)
(-0.0234929 0.0491748 -7.96492e-12)
(-0.0248947 0.0497173 -8.15115e-12)
(-0.026299 0.0502977 -8.16814e-12)
(-0.0277055 0.0509173 -8.39652e-12)
(-0.029114 0.0515774 -8.43462e-12)
(-0.0305242 0.0522794 -8.70606e-12)
(-0.0319357 0.0530248 -8.76496e-12)
(-0.033348 0.0538152 -9.07904e-12)
(-0.0347605 0.0546522 -9.15778e-12)
(-0.0361725 0.0555377 -9.51309e-12)
(-0.0375832 0.0564734 -9.61063e-12)
(-0.0389916 0.0574613 -1.00057e-11)
(-0.0403966 0.0585036 -1.01223e-11)
(-0.041797 0.0596022 -1.05572e-11)
(-0.0431913 0.0607595 -1.06967e-11)
(-0.0445777 0.0619777 -1.11749e-11)
(-0.0459545 0.0632593 -1.1347e-11)
(-0.0473195 0.0646068 -1.18783e-11)
(-0.0486703 0.0660226 -1.21038e-11)
(-0.0500042 0.0675094 -1.27063e-11)
(-0.0513182 0.0690697 -1.30208e-11)