/*--------------------------------*- C++ -*----------------------------------*\
| =========                 |                                                 |
| \\      /  F ield         | OpenFOAM: The Open Source CFD Toolbox           |
|  \\    /   O peration     | Version:  2306                                  |
|   \\  /    A nd           | Website:  www.openfoam.com                      |
|    \\/     M anipulation  |                                                 |
\*---------------------------------------------------------------------------*/
FoamFile
{
    version     2.0;
    format      ascii;
    arch        "LSB;label=32;scalar=64";
    class       volScalarField;
    location    "37.5";
    object      p_rgh;
}
// * * * * * * * * * * * * * * * * * * * * * * * * * * * * * * * * * * * * * //

dimensions      [1 -1 -2 0 0 0 0];

internalField   nonuniform List<scalar> 
14400
(
-0.00987909
-0.00990557
-0.00993693
-0.00997329
-0.0100147
-0.0100614
-0.0101135
-0.0101712
-0.0102346
-0.0103041
-0.0103798
-0.0104621
-0.0105512
-0.0106476
-0.0107516
-0.0108636
-0.0109842
-0.0111138
-0.0112531
-0.0114026
-0.0115631
-0.0117355
-0.0119204
-0.012119
-0.0123324
-0.0125616
-0.0128082
-0.0130735
-0.0133594
-0.0136676
-0.0140004
-0.0143602
-0.0147497
-0.0151721
-0.015631
-0.0161303
-0.0166749
-0.01727
-0.0179218
-0.0186375
-0.0194252
-0.0202946
-0.0212566
-0.0223242
-0.0235123
-0.024838
-0.0263213
-0.0279854
-0.0298566
-0.0319655
-0.0343479
-0.037046
-0.0401075
-0.0435849
-0.0476017
-0.0525388
-0.0584029
-0.06143
-0.0526201
-0.0309851
-0.0124125
0.000141286
0.00162292
0.00221011
0.00303647
0.00376922
0.00436195
0.00485163
0.00525973
0.00559695
0.00587073
0.00608679
0.00624951
0.00636219
0.0064272
0.00644806
0.00642723
0.00636225
0.00624963
0.00608699
-0.0092608
-0.00928406
-0.00931158
-0.00934344
-0.00937974
-0.0094206
-0.00946616
-0.00951657
-0.00957201
-0.00963266
-0.00969875
-0.00977053
-0.00984824
-0.0099322
-0.0100227
-0.0101202
-0.010225
-0.0103375
-0.0104583
-0.0105878
-0.0107268
-0.0108757
-0.0110353
-0.0112065
-0.01139
-0.011587
-0.0117983
-0.0120254
-0.0122694
-0.0125319
-0.0128147
-0.0131194
-0.0134484
-0.013804
-0.0141888
-0.014606
-0.0150589
-0.0155515
-0.0160882
-0.0166741
-0.0173149
-0.0180171
-0.0187882
-0.0196366
-0.0205719
-0.0216047
-0.022747
-0.0240119
-0.0254137
-0.026967
-0.0286863
-0.030583
-0.0326614
-0.0349154
-0.0373302
-0.0397913
-0.04174
-0.0422316
-0.0413124
-0.0397792
-0.0340028
-0.0165222
-0.00843791
-0.00496603
-0.00271504
-0.00107603
0.000129155
0.00103898
0.00174217
0.00229105
0.00271818
0.00304463
0.00328411
0.00344442
0.00352868
0.003552
0.00352871
0.00344449
0.00328423
0.00304484
-0.00870517
-0.00872527
-0.00874899
-0.0087764
-0.00880759
-0.00884265
-0.0088817
-0.00892486
-0.00897226
-0.00902406
-0.00908044
-0.00914158
-0.00920769
-0.009279
-0.00935577
-0.00943827
-0.0095268
-0.0096217
-0.00972332
-0.00983208
-0.00994839
-0.0100727
-0.0102056
-0.0103476
-0.0104994
-0.0106616
-0.0108349
-0.0110202
-0.0112183
-0.0114302
-0.011657
-0.0118998
-0.0121599
-0.0124386
-0.0127373
-0.0130577
-0.0134015
-0.0137705
-0.0141667
-0.014592
-0.0150488
-0.015539
-0.0160649
-0.0166286
-0.017232
-0.0178764
-0.0185629
-0.0192911
-0.0200595
-0.0208644
-0.0216985
-0.0225501
-0.0233998
-0.0242185
-0.0249644
-0.0255709
-0.0258984
-0.0256372
-0.0243144
-0.0218486
-0.0187889
-0.0154282
-0.0131886
-0.0112855
-0.00962063
-0.00824148
-0.00709604
-0.00613476
-0.0053307
-0.00466655
-0.00412919
-0.00370861
-0.00339794
-0.00319565
-0.00310423
-0.00308653
-0.00310416
-0.0031955
-0.0033977
-0.00370824
-0.008132
-0.00814857
-0.00816807
-0.00819055
-0.00821608
-0.00824473
-0.00827656
-0.00831168
-0.00835019
-0.00839218
-0.00843778
-0.00848712
-0.00854034
-0.0085976
-0.00865907
-0.00872494
-0.00879539
-0.00887066
-0.00895096
-0.00903655
-0.00912771
-0.00922472
-0.00932789
-0.00943755
-0.00955407
-0.00967781
-0.0098092
-0.00994864
-0.0100966
-0.0102536
-0.01042
-0.0105964
-0.0107833
-0.0109813
-0.0111909
-0.0114125
-0.0116466
-0.0118937
-0.0121539
-0.0124276
-0.0127145
-0.0130144
-0.0133266
-0.0136499
-0.0139823
-0.0143212
-0.0146627
-0.0150016
-0.0153308
-0.015641
-0.0159202
-0.0161528
-0.0163192
-0.0163956
-0.0163535
-0.0161618
-0.0157833
-0.0151636
-0.0142522
-0.0130791
-0.0117968
-0.0105505
-0.00943936
-0.00839212
-0.00744524
-0.00661927
-0.00590351
-0.00528604
-0.00475942
-0.00431851
-0.00395957
-0.00367994
-0.00347838
-0.00335774
-0.00332231
-0.00332613
-0.00332218
-0.00335747
-0.00347795
-0.0036793
-0.00757786
-0.00759091
-0.00760622
-0.00762382
-0.00764373
-0.00766601
-0.00769071
-0.00771787
-0.00774756
-0.00777983
-0.00781477
-0.00785244
-0.00789293
-0.00793632
-0.00798269
-0.00803215
-0.0080848
-0.00814074
-0.00820008
-0.00826294
-0.00832943
-0.00839968
-0.00847379
-0.00855189
-0.00863409
-0.0087205
-0.00881121
-0.00890631
-0.00900586
-0.0091099
-0.00921841
-0.00933136
-0.00944863
-0.00957005
-0.00969534
-0.0098241
-0.0099558
-0.0100897
-0.0102249
-0.0103602
-0.0104941
-0.0106247
-0.0107495
-0.0108658
-0.0109699
-0.0110575
-0.0111235
-0.0111617
-0.0111649
-0.0111246
-0.0110312
-0.0108739
-0.0106408
-0.0103197
-0.00989846
-0.00936628
-0.00871553
-0.00794578
-0.00707306
-0.00613639
-0.00519056
-0.0042884
-0.00347631
-0.00275398
-0.00211834
-0.0015633
-0.00108131
-0.000666156
-0.00031324
-1.92687e-05
0.00021805
0.000400314
0.000528211
0.000599385
0.000610932
0.00060178
0.000611139
0.000599809
0.000528877
0.000401269
-0.00703766
-0.00704727
-0.00705847
-0.00707128
-0.00708571
-0.00710179
-0.00711952
-0.00713894
-0.00716007
-0.00718293
-0.00720754
-0.00723392
-0.00726211
-0.00729213
-0.00732399
-0.00735772
-0.00739333
-0.00743084
-0.00747025
-0.00751157
-0.00755479
-0.0075999
-0.00764685
-0.00769562
-0.00774612
-0.00779828
-0.00785197
-0.00790705
-0.00796332
-0.00802054
-0.00807842
-0.00813659
-0.00819459
-0.00825189
-0.00830783
-0.00836161
-0.0084123
-0.00845875
-0.00849963
-0.00853336
-0.00855808
-0.0085716
-0.00857141
-0.00855456
-0.00851769
-0.00845697
-0.00836809
-0.00824627
-0.00808625
-0.00788243
-0.00762898
-0.00732012
-0.00695043
-0.00651544
-0.00601228
-0.00544059
-0.0048034
-0.00410848
-0.00337002
-0.00260941
-0.00185253
-0.00112486
-0.000448005
0.000168968
0.000722498
0.00121243
0.00164083
0.00201066
0.00232495
0.00258642
0.00279733
0.00295954
0.00307427
0.00314052
0.00315693
0.00315281
0.0031572
0.00314108
0.00307513
0.00296074
-0.00651676
-0.0065231
-0.00653042
-0.0065387
-0.00654797
-0.0065582
-0.00656939
-0.00658154
-0.00659465
-0.00660869
-0.00662366
-0.00663954
-0.0066563
-0.00667392
-0.00669236
-0.00671159
-0.00673155
-0.00675219
-0.00677343
-0.00679519
-0.00681736
-0.00683984
-0.00686248
-0.00688511
-0.00690754
-0.00692955
-0.00695088
-0.00697121
-0.0069902
-0.00700741
-0.00702239
-0.00703457
-0.00704331
-0.00704788
-0.00704743
-0.007041
-0.00702749
-0.00700563
-0.00697403
-0.00693107
-0.00687496
-0.0068037
-0.00671508
-0.00660669
-0.00647587
-0.00631981
-0.00613553
-0.00591996
-0.00567002
-0.00538272
-0.00505536
-0.00468571
-0.00427232
-0.00381479
-0.00331421
-0.00277353
-0.00219792
-0.00159511
-0.00097546
-0.000351642
0.000262488
0.000853684
0.00141095
0.00192711
0.00239783
0.00282101
0.00319619
0.00352392
0.00380524
0.0040414
0.00423363
0.00438316
0.0044909
0.00455634
0.00457883
0.00457952
0.00457915
0.004557
0.0044919
0.00438455
-0.00601783
-0.00602115
-0.00602489
-0.00602903
-0.00603354
-0.00603842
-0.00604364
-0.00604916
-0.00605496
-0.006061
-0.00606724
-0.00607362
-0.0060801
-0.00608659
-0.00609304
-0.00609935
-0.00610543
-0.00611117
-0.00611644
-0.0061211
-0.006125
-0.00612794
-0.00612972
-0.00613011
-0.00612885
-0.00612563
-0.00612013
-0.00611196
-0.00610069
-0.00608585
-0.0060669
-0.00604324
-0.00601419
-0.00597901
-0.00593685
-0.00588679
-0.00582781
-0.00575877
-0.00567844
-0.00558549
-0.00547844
-0.00535573
-0.00521571
-0.00505663
-0.00487669
-0.00467405
-0.00444689
-0.0041935
-0.00391228
-0.00360192
-0.00326149
-0.00289054
-0.00248934
-0.00205897
-0.00160155
-0.00112035
-0.000619909
-0.000106048
0.000414241
0.000933103
0.00144235
0.00193415
0.0024017
0.00283965
0.00324415
0.0036126
0.00394346
0.00423601
0.00449002
0.00470564
0.00488323
0.00502329
0.00512628
0.00519175
0.00521929
0.00522374
0.00521964
0.00519247
0.00512737
0.00502478
-0.00554255
-0.00554317
-0.0055437
-0.00554412
-0.0055444
-0.0055445
-0.0055444
-0.00554404
-0.00554337
-0.00554235
-0.0055409
-0.00553896
-0.00553643
-0.00553324
-0.00552929
-0.00552445
-0.0055186
-0.0055116
-0.00550329
-0.00549351
-0.00548205
-0.00546869
-0.00545321
-0.00543533
-0.00541477
-0.00539119
-0.00536423
-0.00533351
-0.00529857
-0.00525895
-0.00521411
-0.00516348
-0.00510642
-0.00504225
-0.00497021
-0.00488951
-0.00479926
-0.00469855
-0.00458639
-0.00446173
-0.00432348
-0.00417054
-0.00400175
-0.00381597
-0.00361209
-0.00338905
-0.0031459
-0.00288184
-0.00259627
-0.00228888
-0.0019597
-0.00160917
-0.00123827
-0.000848541
-0.000442185
-2.20798e-05
0.000408203
0.000844451
0.00128192
0.00171552
0.00214006
0.00255056
0.00294252
0.0033121
0.00365619
0.0039724
0.00425897
0.00451469
0.00473878
0.00493077
0.00509045
0.00521782
0.00531294
0.00537534
0.00540462
0.00541113
0.00540498
0.00537606
0.00531404
0.0052193
-0.00509268
-0.00509093
-0.00508867
-0.00508585
-0.00508244
-0.00507841
-0.00507371
-0.00506827
-0.00506205
-0.00505497
-0.00504696
-0.00503793
-0.00502779
-0.00501643
-0.00500374
-0.00498959
-0.00497383
-0.00495632
-0.00493688
-0.00491532
-0.00489145
-0.00486503
-0.00483582
-0.00480356
-0.00476794
-0.00472866
-0.00468536
-0.00463768
-0.00458519
-0.00452747
-0.00446405
-0.0043944
-0.004318
-0.00423426
-0.00414256
-0.00404227
-0.00393269
-0.00381312
-0.00368284
-0.0035411
-0.00338715
-0.00322025
-0.00303968
-0.00284478
-0.00263492
-0.00240959
-0.00216838
-0.00191107
-0.00163759
-0.00134814
-0.00104318
-0.000723491
-0.000390209
-4.48568e-05
0.000310642
0.000673955
0.00104237
0.00141282
0.00178201
0.00214644
0.00250261
0.00284714
0.00317685
0.00348892
0.00378092
0.0040508
0.00429692
0.00451799
0.00471301
0.00488128
0.00502228
0.00513573
0.00522144
0.00527889
0.00530771
0.00531508
0.00530806
0.00527959
0.00522249
0.00513714
-0.00466902
-0.00466526
-0.00466062
-0.00465506
-0.00464854
-0.00464103
-0.00463246
-0.00462278
-0.00461192
-0.00459981
-0.00458636
-0.00457149
-0.0045551
-0.00453707
-0.00451729
-0.00449562
-0.00447192
-0.00444603
-0.00441779
-0.00438701
-0.00435348
-0.004317
-0.00427733
-0.00423422
-0.0041874
-0.00413657
-0.00408142
-0.00402163
-0.00395683
-0.00388665
-0.0038107
-0.00372854
-0.00363974
-0.00354384
-0.00344037
-0.00332882
-0.0032087
-0.00307951
-0.00294073
-0.00279187
-0.00263246
-0.00246205
-0.00228023
-0.00208665
-0.00188106
-0.00166327
-0.00143322
-0.001191
-0.000936847
-0.000671182
-0.000394638
-0.000108074
0.000187409
0.000490461
0.00079948
0.00111262
0.00142781
0.0017428
0.0020552
0.00236254
0.00266233
0.00295215
0.00322972
0.00349292
0.00373985
0.00396885
0.0041785
0.0043676
0.00453518
0.00468048
0.00480289
0.00490198
0.00497746
0.00502882
0.0050557
0.00506311
0.00505602
0.00502946
0.00497842
0.00490326
-0.00427206
-0.00426664
-0.00426004
-0.00425223
-0.00424317
-0.00423281
-0.0042211
-0.00420798
-0.00419338
-0.00417723
-0.00415944
-0.00413992
-0.00411858
-0.00409531
-0.00406998
-0.00404248
-0.00401267
-0.00398039
-0.00394549
-0.0039078
-0.00386712
-0.00382328
-0.00377605
-0.0037252
-0.00367051
-0.00361172
-0.00354856
-0.00348076
-0.00340801
-0.00333002
-0.00324645
-0.00315699
-0.00306128
-0.00295899
-0.00284975
-0.00273323
-0.00260907
-0.00247692
-0.00233648
-0.00218743
-0.00202949
-0.00186244
-0.00168609
-0.0015003
-0.00130504
-0.00110033
-0.000886306
-0.00066321
-0.000431414
-0.000191429
5.60843e-05
0.000310308
0.000570258
0.000834789
0.00110259
0.00137221
0.00164206
0.00191045
0.00217558
0.00243566
0.00268885
0.00293338
0.00316753
0.00338969
0.00359838
0.00379227
0.00397017
0.00413105
0.00427404
0.00439842
0.00450358
0.00458909
0.0046546
0.00469966
0.00472393
0.00473094
0.00472421
0.00470022
0.00465545
0.00459023
-0.00390177
-0.00389503
-0.00388687
-0.00387728
-0.00386622
-0.00385362
-0.00383945
-0.00382365
-0.00380615
-0.00378687
-0.00376575
-0.00374269
-0.0037176
-0.00369039
-0.00366094
-0.00362913
-0.00359485
-0.00355795
-0.00351829
-0.00347572
-0.00343008
-0.00338119
-0.00332888
-0.00327295
-0.0032132
-0.00314943
-0.00308141
-0.00300892
-0.00293172
-0.00284957
-0.00276223
-0.00266945
-0.00257098
-0.00246657
-0.00235597
-0.00223896
-0.00211529
-0.00198477
-0.0018472
-0.00170243
-0.00155031
-0.00139077
-0.00122376
-0.0010493
-0.000867456
-0.000678387
-0.000482321
-0.000279578
-7.05741e-05
0.000144173
0.000364038
0.000588282
0.000816059
0.00104641
0.00127828
0.0015105
0.00174185
0.00197102
0.00219666
0.00241741
0.00263188
0.00283873
0.00303666
0.00322442
0.00340086
0.0035649
0.00371558
0.00385205
0.00397356
0.00407947
0.00416923
0.00424245
0.00429877
0.0043378
0.00435926
0.00436566
0.00435951
0.0043383
0.00429951
0.00424343
-0.00355779
-0.00355003
-0.00354069
-0.00352975
-0.00351717
-0.0035029
-0.00348689
-0.0034691
-0.00344946
-0.0034279
-0.00340435
-0.00337874
-0.00335099
-0.00332099
-0.00328866
-0.00325389
-0.00321656
-0.00317657
-0.00313379
-0.00308808
-0.00303932
-0.00298735
-0.00293202
-0.00287318
-0.00281067
-0.00274431
-0.00267394
-0.00259938
-0.00252044
-0.00243696
-0.00234876
-0.00225564
-0.00215745
-0.002054
-0.00194515
-0.00183075
-0.00171066
-0.00158477
-0.00145299
-0.00131526
-0.00117155
-0.00102186
-0.000866247
-0.000704802
-0.000537679
-0.000365085
-0.000187296
-4.65064e-06
0.000182436
0.000373475
0.000567901
0.00076507
0.000964261
0.00116468
0.00136547
0.0015657
0.0017644
0.00196056
0.00215313
0.00234105
0.00252328
0.00269876
0.0028665
0.00302552
0.0031749
0.00331381
0.00344146
0.00355714
0.00366024
0.00375021
0.00382659
0.00388902
0.00393719
0.00397076
0.0039895
0.00399521
0.00398972
0.00397119
0.00393783
0.00388988
-0.0032394
-0.00323091
-0.00322073
-0.00320883
-0.00319517
-0.00317973
-0.00316244
-0.00314327
-0.00312217
-0.00309906
-0.0030739
-0.0030466
-0.00301711
-0.00298533
-0.00295119
-0.00291459
-0.00287545
-0.00283365
-0.00278911
-0.00274171
-0.00269134
-0.00263788
-0.00258121
-0.0025212
-0.00245773
-0.00239068
-0.0023199
-0.00224527
-0.00216667
-0.00208395
-0.001997
-0.0019057
-0.00180993
-0.00170959
-0.00160459
-0.00149485
-0.00138031
-0.00126092
-0.00113666
-0.00100753
-0.000873579
-0.000734864
-0.000591489
-0.000443598
-0.000291377
-0.000135059
2.50725e-05
0.000188683
0.000355385
0.000524732
0.000696227
0.000869315
0.00104339
0.00121779
0.00139182
0.00156473
0.00173574
0.00190406
0.00206887
0.00222933
0.00238463
0.00253394
0.00267649
0.00281151
0.00293827
0.0030561
0.00316437
0.00326251
0.00335002
0.00342643
0.00349137
0.00354451
0.00358561
0.00361438
0.00363063
0.00363566
0.00363082
0.00361476
0.00358617
0.00354526
-0.00294568
-0.00293671
-0.00292598
-0.00291346
-0.00289912
-0.00288293
-0.00286485
-0.00284484
-0.00282285
-0.00279883
-0.00277273
-0.00274449
-0.00271405
-0.00268133
-0.00264628
-0.00260881
-0.00256885
-0.00252632
-0.00248113
-0.0024332
-0.00238244
-0.00232875
-0.00227205
-0.00221224
-0.00214922
-0.0020829
-0.00201318
-0.00193997
-0.00186319
-0.00178275
-0.00169856
-0.00161055
-0.00151867
-0.00142285
-0.00132305
-0.00121924
-0.00111141
-0.000999563
-0.000883726
-0.000763947
-0.000640299
-0.000512886
-0.000381839
-0.000247322
-0.000109536
3.1284e-05
0.000174863
0.000320888
0.000469004
0.000618816
0.000769891
0.000921755
0.0010739
0.00122577
0.00137681
0.00152639
0.00167391
0.00181872
0.00196016
0.00209759
0.00223034
0.00235779
0.0024793
0.00259427
0.00270212
0.00280232
0.00289435
0.00297777
0.00305214
0.00311711
0.00317236
0.00321762
0.00325267
0.0032773
0.00329134
0.00329574
0.0032915
0.00327763
0.00325317
0.00321828
-0.00267551
-0.00266627
-0.00265524
-0.00264239
-0.0026277
-0.00261114
-0.00259268
-0.00257228
-0.0025499
-0.0025255
-0.00249904
-0.00247046
-0.00243972
-0.00240677
-0.00237153
-0.00233397
-0.002294
-0.00225158
-0.00220663
-0.00215909
-0.00210889
-0.00205596
-0.00200024
-0.00194164
-0.00188011
-0.00181558
-0.00174799
-0.00167727
-0.00160337
-0.00152623
-0.00144582
-0.00136209
-0.00127501
-0.00118457
-0.00109076
-0.00099359
-0.000893073
-0.00078925
-0.000682177
-0.000571928
-0.000458601
-0.000342317
-0.00022322
-0.000101481
2.27e-05
0.000149097
0.000277453
0.000407481
0.000538866
0.00067126
0.000804289
0.000937549
0.00107061
0.00120302
0.00133431
0.00146398
0.00159152
0.00171643
0.00183817
0.00195622
0.00207006
0.00217919
0.00228309
0.00238129
0.00247333
0.00255878
0.00263723
0.0027083
0.00277167
0.00282702
0.00287411
0.00291271
0.00294264
0.00296373
0.00297583
0.00297967
0.00297598
0.00296402
0.00294309
0.0029133
-0.00242764
-0.00241832
-0.0024072
-0.00239427
-0.00237951
-0.00236288
-0.00234438
-0.00232396
-0.0023016
-0.00227725
-0.00225089
-0.00222248
-0.00219197
-0.00215933
-0.0021245
-0.00208745
-0.00204812
-0.00200647
-0.00196244
-0.001916
-0.00186708
-0.00181564
-0.00176163
-0.00170501
-0.00164573
-0.00158374
-0.00151901
-0.0014515
-0.00138118
-0.00130803
-0.00123202
-0.00115316
-0.00107142
-0.000986834
-0.000899404
-0.000809166
-0.000716162
-0.00062045
-0.000522105
-0.000421216
-0.000317892
-0.000212261
-0.000104469
5.31386e-06
0.000116899
0.000230073
0.000344602
0.000460228
0.000576673
0.000693633
0.000810787
0.000927792
0.00104429
0.00115989
0.00127422
0.00138686
0.0014974
0.00160542
0.00171049
0.00181221
0.00191014
0.00200387
0.002093
0.00217716
0.00225596
0.00232905
0.00239612
0.00245686
0.00251099
0.00255828
0.00259851
0.00263151
0.00265712
0.0026752
0.00268565
0.00268899
0.00268578
0.00267547
0.00265752
0.00263205
-0.00220076
-0.0021915
-0.00218047
-0.00216765
-0.00215304
-0.00213661
-0.00211834
-0.0020982
-0.00207617
-0.00205224
-0.00202635
-0.0019985
-0.00196864
-0.00193674
-0.00190277
-0.0018667
-0.0018285
-0.00178811
-0.00174552
-0.00170069
-0.00165358
-0.00160417
-0.00155241
-0.00149828
-0.00144176
-0.00138281
-0.00132143
-0.00125759
-0.00119129
-0.00112252
-0.00105127
-0.000977572
-0.000901426
-0.000822862
-0.000741917
-0.000658635
-0.000573075
-0.000485306
-0.000395412
-0.000303491
-0.000209653
-0.000114028
-1.67582e-05
8.19959e-05
0.000182057
0.000283231
0.000385305
0.000488052
0.000591226
0.000694565
0.000797792
0.000900616
0.00100273
0.00110382
0.00120357
0.00130162
0.00139766
0.00149132
0.00158227
0.00167017
0.00175466
0.00183543
0.00191214
0.00198449
0.00205217
0.00211491
0.00217243
0.0022245
0.0022709
0.00231142
0.00234589
0.00237417
0.00239614
0.00241168
0.0024207
0.00242361
0.00242083
0.00241193
0.00239651
0.00237467
-0.0019935
-0.00198442
-0.00197362
-0.00196108
-0.0019468
-0.00193075
-0.00191293
-0.00189331
-0.00187188
-0.00184861
-0.00182349
-0.0017965
-0.0017676
-0.00173678
-0.00170401
-0.00166928
-0.00163255
-0.0015938
-0.00155301
-0.00151016
-0.00146523
-0.00141819
-0.00136904
-0.00131775
-0.00126432
-0.00120873
-0.00115098
-0.00109107
-0.00102901
-0.000964804
-0.000898467
-0.000830022
-0.000759501
-0.00068694
-0.000612386
-0.000535896
-0.000457533
-0.000377376
-0.00029551
-0.000212034
-0.00012706
-4.07109e-05
4.68777e-05
0.000135556
0.000225162
0.000315519
0.000406438
0.000497718
0.000589144
0.00068049
0.000771517
0.000861978
0.000951616
0.00104016
0.00112735
0.0012129
0.00129653
0.00137795
0.00145689
0.00153306
0.00160619
0.001676
0.00174223
0.00180463
0.00186296
0.00191698
0.00196648
0.00201126
0.00205115
0.00208598
0.00211561
0.00213992
0.00215882
0.00217221
0.00218002
0.00218256
0.00218014
0.00217245
0.00215917
0.00214039
-0.0018045
-0.00179569
-0.00178523
-0.00177309
-0.00175927
-0.00174377
-0.00172656
-0.00170764
-0.001687
-0.00166461
-0.00164046
-0.00161454
-0.00158684
-0.00155734
-0.00152601
-0.00149286
-0.00145786
-0.00142099
-0.00138226
-0.00134163
-0.00129911
-0.00125469
-0.00120836
-0.00116011
-0.00110995
-0.00105788
-0.0010039
-0.000948029
-0.00089028
-0.000830671
-0.000769231
-0.00070599
-0.000640987
-0.000574267
-0.000505884
-0.000435897
-0.000364377
-0.000291402
-0.000217058
-0.000141442
-6.46605e-05
1.31695e-05
9.19213e-05
0.000171458
0.000251632
0.000332286
0.000413251
0.000494351
0.000575398
0.000656197
0.000736543
0.000816225
0.000895025
0.000972719
0.00104908
0.00112387
0.00119687
0.00126783
0.00133652
0.00140272
0.00146619
0.00152672
0.00158408
0.00163806
0.00168848
0.00173515
0.00177788
0.00181653
0.00185093
0.00188097
0.00190652
0.00192749
0.0019438
0.00195537
0.00196214
0.00196436
0.00196225
0.00195559
0.00194413
0.00192793
-0.00163242
-0.00162396
-0.0016139
-0.00160226
-0.00158901
-0.00157416
-0.00155769
-0.0015396
-0.00151987
-0.0014985
-0.00147549
-0.00145081
-0.00142446
-0.00139643
-0.00136672
-0.00133531
-0.00130219
-0.00126737
-0.00123084
-0.00119259
-0.00115262
-0.00111093
-0.00106753
-0.00102241
-0.000975597
-0.000927089
-0.000876905
-0.000825064
-0.000771588
-0.000716505
-0.000659848
-0.000601654
-0.000541967
-0.000480837
-0.00041832
-0.000354478
-0.000289382
-0.000223108
-0.000155742
-8.73757e-05
-1.81093e-05
5.19485e-05
0.000122681
0.000193964
0.000265664
0.000337641
0.000409746
0.000481824
0.000553712
0.00062524
0.000696233
0.000766511
0.000835887
0.000904174
0.000971179
0.00103671
0.00110057
0.00116256
0.00122249
0.00128017
0.00133542
0.00138804
0.00143786
0.00148472
0.00152844
0.00156888
0.00160589
0.00163934
0.00166911
0.0016951
0.0017172
0.00173534
0.00174946
0.00175949
0.00176538
0.00176731
0.00176548
0.0017597
0.00174978
0.00173576
-0.00147595
-0.00146788
-0.0014583
-0.00144721
-0.00143461
-0.00142048
-0.00140484
-0.00138766
-0.00136895
-0.0013487
-0.00132691
-0.00130357
-0.00127867
-0.00125223
-0.00122422
-0.00119465
-0.00116352
-0.00113083
-0.00109657
-0.00106076
-0.0010234
-0.000984486
-0.000944039
-0.000902066
-0.000858582
-0.000813604
-0.000767154
-0.000719255
-0.000669935
-0.000619227
-0.000567167
-0.000513797
-0.000459163
-0.000403316
-0.000346314
-0.000288218
-0.000229097
-0.000169026
-0.000108086
-4.63626e-05
1.605e-05
7.90521e-05
0.000142538
0.000206394
0.000270501
0.000334736
0.000398966
0.000463056
0.000526864
0.000590242
0.000653042
0.000715106
0.000776279
0.000836399
0.000895305
0.000952832
0.00100882
0.0010631
0.00111552
0.00116591
0.00121412
0.00126
0.0013034
0.00134418
0.00138221
0.00141735
0.00144951
0.00147855
0.00150439
0.00152694
0.00154612
0.00156187
0.00157412
0.00158284
0.00158797
0.00158967
0.00158807
0.00158304
0.00157442
0.00156227
-0.00133384
-0.00132619
-0.00131713
-0.00130664
-0.00129472
-0.00128138
-0.0012666
-0.0012504
-0.00123276
-0.00121369
-0.00119318
-0.00117123
-0.00114785
-0.00112303
-0.00109678
-0.00106909
-0.00103998
-0.00100944
-0.000977489
-0.000944125
-0.00090936
-0.000873208
-0.000835681
-0.000796796
-0.000756572
-0.00071503
-0.000672195
-0.000628094
-0.00058276
-0.000536227
-0.000488533
-0.000439723
-0.000389842
-0.000338942
-0.000287079
-0.000234314
-0.000180714
-0.000126347
-7.12913e-05
-1.56263e-05
4.05616e-05
9.71814e-05
0.000154137
0.000211326
0.000268644
0.000325979
0.000383216
0.000440236
0.000496916
0.000553127
0.000608741
0.000663625
0.000717644
0.00077066
0.000822538
0.000873139
0.000922325
0.00096996
0.00101591
0.00106004
0.00110221
0.00114232
0.00118022
0.00121582
0.00124898
0.00127962
0.00130763
0.00133293
0.00135543
0.00137505
0.00139174
0.00140545
0.00141612
0.00142371
0.0014282
0.00142969
0.0014283
0.00142391
0.00141641
0.00140584
-0.0012049
-0.0011977
-0.00118917
-0.0011793
-0.0011681
-0.00115556
-0.00114169
-0.00112648
-0.00110994
-0.00109207
-0.00107287
-0.00105234
-0.00103048
-0.00100731
-0.000982816
-0.000957016
-0.000929912
-0.000901514
-0.000871832
-0.000840877
-0.000808662
-0.000775203
-0.000740516
-0.000704622
-0.000667541
-0.000629299
-0.000589922
-0.00054944
-0.000507887
-0.000465297
-0.000421712
-0.000377173
-0.000331728
-0.000285427
-0.000238323
-0.000190476
-0.000141947
-9.28018e-05
-4.3112e-05
7.0483e-06
5.76005e-05
0.000108462
0.000159546
0.000210761
0.000262013
0.000313205
0.000364234
0.000414997
0.000465385
0.000515288
0.000564595
0.000613191
0.00066096
0.000707786
0.000753553
0.000798143
0.000841439
0.000883327
0.000923693
0.000962424
0.000999413
0.00103455
0.00106774
0.00109889
0.00112789
0.00115467
0.00117914
0.00120123
0.00122087
0.001238
0.00125257
0.00126453
0.00127385
0.00128049
0.00128442
0.00128573
0.00128452
0.00128068
0.00127413
0.00126491
-0.00108801
-0.00108127
-0.00107328
-0.00106404
-0.00105356
-0.00104183
-0.00102887
-0.00101467
-0.00099923
-0.00098256
-0.000964662
-0.000945541
-0.000925202
-0.000903652
-0.000880899
-0.00085695
-0.000831817
-0.000805509
-0.00077804
-0.000749423
-0.000719674
-0.000688811
-0.000656853
-0.000623821
-0.000589739
-0.000554634
-0.000518532
-0.000481466
-0.000443468
-0.000404576
-0.000364827
-0.000324265
-0.000282934
-0.000240883
-0.000198163
-0.00015483
-0.000110941
-6.6558e-05
-2.17463e-05
2.3426e-05
6.88875e-05
0.000114563
0.000160375
0.000206242
0.000252081
0.000297804
0.000343322
0.000388544
0.000433376
0.000477722
0.000521484
0.000564566
0.000606867
0.000648288
0.000688728
0.000728089
0.000766271
0.000803177
0.000838711
0.000872778
0.000905288
0.00093615
0.000965281
0.000992599
0.00101803
0.00104149
0.00106292
0.00108226
0.00109946
0.00111445
0.0011272
0.00113766
0.00114582
0.00115164
0.00115509
0.00115625
0.00115518
0.00115182
0.00114609
0.00113802
-0.000982133
-0.00097584
-0.000968389
-0.00095978
-0.000950016
-0.000939099
-0.000927034
-0.000913823
-0.000899472
-0.000883984
-0.000867367
-0.000849625
-0.000830768
-0.000810803
-0.00078974
-0.000767589
-0.000744361
-0.00072007
-0.000694731
-0.000668357
-0.000640968
-0.000612582
-0.000583219
-0.000552903
-0.000521657
-0.000489508
-0.000456486
-0.00042262
-0.000387944
-0.000352494
-0.000316308
-0.000279427
-0.000241893
-0.000203753
-0.000165055
-0.00012585
-8.61938e-05
-4.61416e-05
-5.75349e-06
3.49084e-05
7.57791e-05
0.000116791
0.000157875
0.000198957
0.000239965
0.00028082
0.000321444
0.000361758
0.000401678
0.000441122
0.000480006
0.000518244
0.000555751
0.000592442
0.000628231
0.000663032
0.000696762
0.000729338
0.000760678
0.000790701
0.000819332
0.000846496
0.000872119
0.000896134
0.000918476
0.000939085
0.000957902
0.000974877
0.000989962
0.00100312
0.0010143
0.00102348
0.00103064
0.00103575
0.00103879
0.00103981
0.00103887
0.00103592
0.0010309
0.00102383
-0.00088628
-0.000880433
-0.000873512
-0.000865518
-0.000856457
-0.00084633
-0.000835142
-0.000822898
-0.000809604
-0.000795265
-0.000779889
-0.000763484
-0.000746058
-0.000727621
-0.000708183
-0.000687757
-0.000666355
-0.000643991
-0.000620681
-0.000596441
-0.00057129
-0.000545248
-0.000518335
-0.000490574
-0.000461991
-0.000432612
-0.000402465
-0.000371581
-0.000339992
-0.000307732
-0.000274838
-0.000241349
-0.000207306
-0.000172751
-0.000137731
-0.000102293
-6.64863e-05
-3.03638e-05
6.02046e-06
4.26099e-05
7.93458e-05
0.000116168
0.000153013
0.000189816
0.000226513
0.000263034
0.00029931
0.000335272
0.000370847
0.000405963
0.000440546
0.000474523
0.000507821
0.000540365
0.000572082
0.000602898
0.000632743
0.000661545
0.000689234
0.000715743
0.000741006
0.00076496
0.000787544
0.0008087
0.000828374
0.000846513
0.00086307
0.000878002
0.000891269
0.000902834
0.000912668
0.000920743
0.000927038
0.000931534
0.000934215
0.000935122
0.000934298
0.000931699
0.000927286
0.000921072
-0.000799554
-0.00079414
-0.000787733
-0.000780337
-0.000771955
-0.000762591
-0.000752251
-0.000740939
-0.000728662
-0.000715428
-0.000701244
-0.000686119
-0.000670062
-0.000653084
-0.000635196
-0.000616411
-0.000596743
-0.000576206
-0.000554815
-0.000532589
-0.000509547
-0.000485706
-0.00046109
-0.000435722
-0.000409624
-0.000382824
-0.00035535
-0.00032723
-0.000298495
-0.000269179
-0.000239316
-0.000208944
-0.000178099
-0.000146822
-0.000115157
-8.31455e-05
-5.08347e-05
-1.82719e-05
1.44933e-05
4.74099e-05
8.0425e-05
0.000113484
0.000146531
0.000179508
0.000212357
0.000245018
0.00027743
0.00030953
0.000341256
0.000372545
0.000403333
0.000433556
0.00046315
0.000492051
0.000520196
0.000547522
0.000573968
0.000599473
0.000623976
0.000647422
0.000669752
0.000690915
0.000710857
0.00072953
0.000746887
0.000762885
0.000777483
0.000790645
0.000802337
0.000812528
0.000821192
0.000828308
0.000833857
0.000837822
0.000840192
0.000840996
0.000840271
0.000837981
0.000834094
0.000828624
-0.000721121
-0.000716124
-0.000710211
-0.000703388
-0.000695657
-0.000687024
-0.000677494
-0.000667073
-0.000655768
-0.000643587
-0.000630537
-0.000616629
-0.000601872
-0.000586276
-0.000569855
-0.000552621
-0.000534587
-0.000515769
-0.000496183
-0.000475846
-0.000454777
-0.000432995
-0.000410522
-0.00038738
-0.000363592
-0.000339183
-0.000314181
-0.000288614
-0.00026251
-0.000235901
-0.00020882
-0.000181301
-0.00015338
-0.000125094
-9.64812e-05
-6.7583e-05
-3.8441e-05
-9.09873e-06
2.0399e-05
5.0006e-05
7.96745e-05
0.000109356
0.000139
0.000168555
0.00019797
0.000227191
0.000256164
0.000284835
0.000313149
0.00034105
0.000368483
0.000395392
0.000421722
0.000447418
0.000472424
0.000496686
0.000520152
0.000542769
0.000564486
0.000585253
0.000605024
0.000623751
0.00064139
0.0006579
0.000673242
0.000687377
0.000700272
0.000711896
0.000722219
0.000731217
0.000738866
0.000745149
0.000750049
0.000753553
0.000755651
0.000756366
0.000755727
0.000753705
0.000750277
0.000745452
-0.000650216
-0.000645616
-0.000640174
-0.000633896
-0.000626785
-0.000618847
-0.000610086
-0.00060051
-0.000590125
-0.00057894
-0.000566963
-0.000554204
-0.000540672
-0.000526378
-0.000511336
-0.000495558
-0.000479057
-0.000461849
-0.000443949
-0.000425376
-0.000406145
-0.000386278
-0.000365795
-0.000344716
-0.000323065
-0.000300866
-0.000278144
-0.000254926
-0.000231239
-0.000207113
-0.000182579
-0.000157667
-0.000132412
-0.000106848
-8.10098e-05
-5.49353e-05
-2.86625e-05
-2.2309e-06
2.43189e-05
5.09452e-05
7.76051e-05
0.000104255
0.00013085
0.000157344
0.000183691
0.000209845
0.000235757
0.00026138
0.000286665
0.000311564
0.000336028
0.000360008
0.000383456
0.000406325
0.000428567
0.000450134
0.000470981
0.000491064
0.000510337
0.000528759
0.000546288
0.000562885
0.000578512
0.000593133
0.000606715
0.000619226
0.000630636
0.000640918
0.00065005
0.000658007
0.000664773
0.00067033
0.000674665
0.000677767
0.000679627
0.000680264
0.0006797
0.000677913