/*--------------------------------*- C++ -*----------------------------------*\
| =========                 |                                                 |
| \\      /  F ield         | OpenFOAM: The Open Source CFD Toolbox           |
|  \\    /   O peration     | Version:  2306                                  |
|   \\  /    A nd           | Website:  www.openfoam.com                      |
|    \\/     M anipulation  |                                                 |
\*---------------------------------------------------------------------------*/
FoamFile
{
    version     2.0;
    format      ascii;
    arch        "LSB;label=32;scalar=64";
    class       surfaceScalarField;
    location    "37.5";
    object      phi;
}
// * * * * * * * * * * * * * * * * * * * * * * * * * * * * * * * * * * * * * //

dimensions      [0 3 -1 0 0 0 0];

oriented        oriented;

internalField   nonuniform List<scalar> 
37980
(
-0.0901918
0.0165045
2.98591e-10
-0.106771
0.016579
2.8452e-10
-0.123437
0.0166663
2.27161e-10
-0.140204
0.0167667
1.52262e-10
-0.157084
0.0168806
1.58907e-10
-0.174093
0.0170084
1.773e-10
-0.191243
0.0171506
1.98636e-10
-0.208551
0.0173077
2.08625e-10
-0.226031
0.0174801
2.22603e-10
-0.2437
0.0176684
2.28633e-10
-0.261573
0.0178734
2.41513e-10
-0.279669
0.0180956
2.47177e-10
-0.298005
0.0183359
2.60667e-10
-0.3166
0.0185951
2.6735e-10
-0.335474
0.0188741
2.82166e-10
-0.354648
0.019174
2.90778e-10
-0.374144
0.0194957
3.07193e-10
-0.393984
0.0198406
3.18397e-10
-0.414194
0.02021
3.36393e-10
-0.434799
0.0206052
3.50744e-10
-0.455827
0.0210279
3.70088e-10
-0.477307
0.0214798
3.88081e-10
-0.49927
0.0219629
4.08316e-10
-0.521749
0.0224793
4.3033e-10
-0.54478
0.0230312
4.50706e-10
-0.568402
0.0236213
4.76893e-10
-0.592654
0.0242524
4.96255e-10
-0.617582
0.0249278
5.26327e-10
-0.643233
0.025651
5.42921e-10
-0.669659
0.0264261
5.7575e-10
-0.696917
0.0272577
5.86837e-10
-0.725068
0.028151
6.1973e-10
-0.75418
0.0291122
6.20967e-10
-0.784329
0.0301484
6.48698e-10
-0.815597
0.0312682
6.3375e-10
-0.848078
0.0324816
6.48387e-10
-0.88188
0.0338013
6.10674e-10
-0.917123
0.0352428
6.05027e-10
-0.953948
0.0368257
5.45005e-10
-0.992524
0.0385754
5.21852e-10
-1.03305
0.0405247
4.57361e-10
-1.07577
0.0427174
4.3049e-10
-1.12098
0.0452122
3.75409e-10
-1.16907
0.0480888
3.00838e-10
-1.22052
0.0514571
1.35909e-10
-1.27599
0.0554694
-3.13995e-10
-1.33633
0.0603408
-1.09141e-09
-1.40271
0.0663792
-2.63642e-09
-1.47675
0.0740362
-4.63891e-09
-1.56074
0.0839915
-7.32765e-09
-1.65804
0.0972966
-9.36519e-09
-1.77365
0.115617
-9.81342e-09
-1.91528
0.141622
-6.68553e-09
-2.09485
0.179573
1.79228e-09
-2.33091
0.236065
1.49126e-08
-2.65195
0.321039
3.0716e-08
-3.10139
0.449439
3.89205e-08
-3.74001
0.638618
3.78425e-08
-4.64335
0.903344
3.37121e-08
-5.89335
1.24999
1.14138e-07
-7.60873
1.71538
8.00253e-08
-6.14571
3.26169
3.4855e-07
-5.23324
3.81223
2.0754e-08
-4.54429
4.03576
-5.81915e-08
-3.97405
4.15446
-1.09492e-07
-3.47474
4.2254
-1.36935e-07
-3.02243
4.27239
-1.42632e-07
-2.60407
4.30634
-1.20396e-07
-2.2116
4.33224
-8.90809e-08
-1.83946
4.35256
-5.35105e-08
-1.48343
4.36868
-2.44011e-08
-1.14014
4.38141
-2.97167e-09
-0.806742
4.3913
9.63011e-09
-0.480723
4.39869
1.59336e-08
-0.159636
4.40362
1.83299e-08
0.159606
4.40546
2.25839e-08
0.480693
4.40362
9.43337e-09
0.80671
4.39869
1.24346e-08
1.14011
4.3913
-5.98431e-09
4.38141
-1.14015e-08
-0.201281
0.0533301
-1.93039e-11
-0.238274
0.0535725
-2.9712e-11
-0.275467
0.0538588
-9.38756e-11
-0.31289
0.05419
-1.45817e-10
-0.350577
0.0545673
-1.43097e-10
-0.38856
0.0549918
-1.28573e-10
-0.426874
0.055465
-1.21024e-10
-0.465555
0.0559887
-1.17478e-10
-0.50464
0.0565647
-1.18837e-10
-0.544167
0.0571951
-1.19902e-10
-0.584175
0.057882
-1.23849e-10
-0.624708
0.0586281
-1.26318e-10
-0.665808
0.0594362
-1.31264e-10
-0.707522
0.0603093
-1.34193e-10
-0.749899
0.0612507
-1.39419e-10
-0.792989
0.0622643
-1.42283e-10
-0.836848
0.0633542
-1.47286e-10
-0.881532
0.064525
-1.49695e-10
-0.927104
0.0657816
-1.53977e-10
-0.973628
0.0671295
-1.55513e-10
-1.02118
0.068575
-1.58444e-10
-1.06982
0.0701248
-1.58568e-10
-1.11964
0.0717864
-1.59321e-10
-1.17073
0.0735681
-1.57345e-10
-1.22318
0.0754792
-1.54863e-10
-1.27709
0.07753
-1.49936e-10
-1.33257
0.0797321
-1.42917e-10
-1.38974
0.0820984
-1.34058e-10
-1.44873
0.0846434
-1.21027e-10
-1.50969
0.0873837
-1.07289e-10
-1.57277
0.0903376
-8.68707e-11
-1.63814
0.0935266
-6.77936e-11
-1.70601
0.0969748
-3.93382e-11
-1.77657
0.10071
-1.5703e-11
-1.85007
0.104765
2.00283e-11
-1.92676
0.109178
4.60373e-11
-2.00695
0.113992
8.79063e-11
-2.09097
0.119262
1.16132e-10
-2.1792
0.12505
1.69176e-10
-2.27206
0.131435
2.11845e-10
-2.37004
0.138511
2.99212e-10
-2.47372
0.146396
4.06003e-10
-2.58375
0.155239
5.49031e-10
-2.70089
0.165229
6.95753e-10
-2.82604
0.176609
8.50879e-10
-2.96027
0.189698
8.12355e-10
-3.10484
0.204917
5.07874e-10
-3.2613
0.222836
-4.02595e-10
-3.4315
0.244234
-1.94223e-09
-3.61772
0.270209
-4.16266e-09
-3.82276
0.302342
-6.54962e-09
-4.05009
0.342948
-8.1074e-09
-4.30392
0.395448
-7.8657e-09
-4.58916
0.464818
-4.11466e-09
-4.91119
0.558095
2.54321e-09
-5.27511
0.684958
1.13039e-08
-5.68398
0.858311
1.77666e-08
-6.13946
1.09409
1.99267e-08
-6.64381
1.4077
2.20654e-08
-7.19239
1.79857
1.47578e-08
-7.71815
2.24114
6.78076e-09
-7.16235
2.70588
-3.38043e-08
-6.40519
3.05508
-3.17703e-08
-5.67979
3.31035
-2.71156e-08
-5.01689
3.49157
-1.79046e-08
-4.41219
3.6207
-8.97412e-09
-3.85493
3.71513
5.41594e-10
-3.33473
3.78614
8.49582e-09
-2.84321
3.84072
1.44021e-08
-2.37388
3.88323
1.77174e-08
-1.92165
3.91645
1.85446e-08
-1.4824
3.94216
1.76767e-08
-1.05264
3.96154
1.57984e-08
-0.629257
3.9753
1.37556e-08
-0.209392
3.98375
1.23477e-08
0.209403
3.98667
1.24272e-08
0.629268
3.98375
1.2488e-08
1.05265
3.9753
1.37801e-08
1.48242
3.96154
1.41512e-08
3.94216
1.5618e-08
-0.239244
0.097092
-2.54715e-11
-0.283201
0.0975295
-5.37606e-11
-0.32739
0.0980479
-8.64617e-11
-0.371849
0.0986489
-1.36853e-10
-0.416616
0.0993344
-1.25573e-10
-0.461731
0.100107
-1.04898e-10
-0.507235
0.100969
-9.20202e-11
-0.55317
0.101924
-8.48499e-11
-0.59958
0.102974
-8.28493e-11
-0.646509
0.104125
-8.11828e-11
-0.694006
0.105379
-8.21107e-11
-0.742119
0.106742
-8.18157e-11
-0.790902
0.108218
-8.35543e-11
-0.840407
0.109815
-8.34259e-11
-0.890692
0.111536
-8.51271e-11
-0.941819
0.113391
-8.45624e-11
-0.993851
0.115386
-8.5693e-11
-1.04686
0.11753
-8.42777e-11
-1.10091
0.119832
-8.4367e-11
-1.15608
0.122303
-8.17122e-11
-1.21246
0.124955
-8.02351e-11
-1.27013
0.127799
-7.59173e-11
-1.3292
0.13085
-7.22585e-11
-1.38975
0.134123
-6.58218e-11
-1.45191
0.137637
-5.92837e-11
-1.51579
0.14141
-5.0276e-11
-1.58152
0.145465
-4.01197e-11
-1.64925
0.149826
-2.81826e-11
-1.71913
0.15452
-1.37529e-11
-1.79132
0.159579
1.15656e-12
-1.86602
0.165038
2.01063e-11
-1.94344
0.170937
3.72212e-11
-2.02378
0.177321
5.98743e-11
-2.10731
0.184243
7.68121e-11
-2.19431
0.191763
1.00471e-10
-2.28509
0.199951
1.12738e-10
-2.37998
0.208887
1.33123e-10
-2.47938
0.218665
1.3611e-10
-2.58373
0.229397
1.51693e-10
-2.69351
0.241214
1.48085e-10
-2.80927
0.254272
1.6922e-10
-2.93163
0.268756
1.76093e-10
-3.06128
0.28489
2.20852e-10
-3.199
0.302949
2.38309e-10
-3.34566
0.323262
2.54815e-10
-3.5022
0.346242
1.28477e-10
-3.66968
0.372396
-1.85701e-10
-3.84921
0.402366
-9.12604e-10
-4.04194
0.436969
-2.09075e-09
-4.249
0.477264
-3.75344e-09
-4.47131
0.524653
-5.63252e-09
-4.70938
0.581019
-7.07985e-09
-4.96285
0.648915
-7.53323e-09
-5.22982
0.731788
-5.33194e-09
-5.5059
0.834172
-2.02864e-09
-5.78271
0.961771
3.92455e-09
-6.04559
1.12119
1.03682e-08
-6.27028
1.31879
1.59598e-08
-6.41984
1.55725
1.88905e-08
-6.45158
1.83031
1.75348e-08
-6.33022
2.11979
1.25645e-08
-6.02409
2.39975
6.28365e-09
-5.61201
2.643
-1.20639e-09
-5.14655
2.84489
-7.49549e-09
-4.66205
3.00707
-1.26802e-08
-4.17697
3.13562
-1.43118e-08
-3.69956
3.23773
-1.34159e-08
-3.23285
3.31943
-1.07366e-08
-2.7773
3.38517
-7.39847e-09
-2.33214
3.43807
-4.14443e-09
-1.89602
3.48033
-1.57833e-09
-1.46732
3.51346
1.88837e-10
-1.0443
3.53852
1.18517e-09
-0.625164
3.55617
1.59291e-09
-0.208169
3.56676
1.72519e-09
0.208181
3.57032
1.95839e-09
0.625176
3.56676
1.59549e-09
1.04431
3.55617
1.32958e-09
1.46733
3.53852
2.87794e-10
3.51346
-7.00563e-10
-0.246067
0.142092
1.13551e-10
-0.29126
0.142722
1.20635e-10
-0.336682
0.14347
6.04586e-11
-0.382372
0.144339
3.29598e-11
-0.428367
0.14533
3.74204e-11
-0.474707
0.146447
4.86153e-11
-0.521433
0.147694
5.41671e-11
-0.568585
0.149076
5.74535e-11
-0.616207
0.150596
5.80763e-11
-0.664343
0.152261
5.97349e-11
-0.713041
0.154077
6.00958e-11
-0.762349
0.156049
6.2128e-11
-0.812316
0.158186
6.2892e-11
-0.862997
0.160495
6.55451e-11
-0.914447
0.162986
6.68775e-11
-0.966725
0.165669
7.02924e-11
-1.01989
0.168553
7.23866e-11
-1.07401
0.171653
7.67359e-11
-1.12916
0.174979
7.98498e-11
-1.18541
0.178549
8.53406e-11
-1.24283
0.182376
8.97937e-11
-1.30151
0.186481
9.66467e-11
-1.36154
0.190881
1.02801e-10
-1.42302
0.1956
1.11209e-10
-1.48604
0.200662
1.19434e-10
-1.55073
0.206094
1.29511e-10
-1.61719
0.211926
1.40131e-10
-1.68555
0.218192
1.51819e-10
-1.75596
0.224931
1.65008e-10
-1.82857
0.232184
1.77907e-10
-1.90353
0.24
1.93456e-10
-1.98103
0.248432
2.06479e-10
-2.06125
0.257542
2.23348e-10
-2.1444
0.267399
2.34169e-10
-2.23072
0.278082
2.49918e-10
-2.32045
0.289681
2.5461e-10
-2.41386
0.3023
2.65509e-10
-2.51126
0.316057
2.59741e-10
-2.61295
0.331089
2.63571e-10
-2.71929
0.347556
2.47653e-10
-2.83066
0.365641
2.50891e-10
-2.94746
0.38556
2.16128e-10
-3.07014
0.407565
2.52716e-10
-3.19914
0.43195
2.50472e-10
-3.33494
0.459064
2.72302e-10
-3.47802
0.489318
2.31459e-10
-3.62882
0.523199
1.30547e-10
-3.78774
0.561288
-1.57609e-10
-3.95505
0.604279
-6.5723e-10
-4.13079
0.653009
-1.41116e-09
-4.31464
0.708495
-2.35575e-09
-4.5056
0.77198
-3.19053e-09
-4.70167
0.84499
-3.73377e-09
-4.89927
0.929383
-3.36441e-09
-5.09245
1.02735
-2.15742e-09
-5.27204
1.14136
3.40442e-10
-5.42465
1.27381
3.38423e-09
-5.53222
1.42635
6.44977e-09
-5.57341
1.59845
8.70778e-09
-5.52886
1.78576
9.1734e-09
-5.38883
1.97975
7.90093e-09
-5.15839
2.16931
4.62406e-09
-4.859
2.34361
7.59913e-10
-4.51198
2.49787
-3.03214e-09
-4.13581
2.63089
-5.66374e-09
-3.74404
2.74384
-6.88414e-09
-3.34532
2.83901
-6.79101e-09
-2.94472
2.91884
-5.76603e-09
-2.545
2.98545
-4.321e-09
-2.14748
3.04055
-2.80074e-09
-1.7526
3.08545
-1.53162e-09
-1.36028
3.12114
-5.75167e-10
-0.970104
3.14834
1.53759e-11
-0.581476
3.16754
3.36132e-10
-0.193731
3.17901
4.86661e-10
0.193738
3.18285
7.68008e-10
0.581483
3.17901
3.87438e-10
0.970111
3.16754
2.8497e-10
1.36029
3.14834
-6.42701e-10
3.12114
-1.13497e-09
-0.243531
0.186613
-4.23425e-11
-0.288233
0.187424
-6.68305e-11
-0.333149
0.188387
-8.17454e-11
-0.378314
0.189504
-1.18997e-10
-0.423764
0.19078
-1.07634e-10
-0.469535
0.192218
-9.064e-11
-0.515664
0.193823
-8.11776e-11
-0.56219
0.195601
-7.65152e-11
-0.609151
0.197558
-7.62058e-11
-0.656589
0.199699
-7.56872e-11
-0.704546
0.202034
-7.72822e-11
-0.753067
0.204569
-7.74238e-11
-0.802195
0.207315
-7.93504e-11
-0.85198
0.21028
-7.94292e-11
-0.902471
0.213477
-8.12061e-11
-0.95372
0.216918
-8.08978e-11
-1.00578
0.220615
-8.21669e-11
-1.05871
0.224584
-8.11897e-11
-1.11257
0.228841
-8.15587e-11
-1.16743
0.233404
-7.96062e-11
-1.22335
0.238292
-7.86124e-11
-1.28039
0.243528
-7.53539e-11
-1.33865
0.249136
-7.24717e-11
-1.39819
0.255141
-6.7581e-11
-1.4591
0.261574
-6.22553e-11
-1.52147
0.268466
-5.5467e-11
-1.5854
0.275853
-4.71766e-11
-1.65098
0.283776
-3.83786e-11
-1.71833
0.292278
-2.67562e-11
-1.78756
0.30141
-1.61506e-11
-1.85878
0.311225
-1.21173e-12
-1.93213
0.321786
1.03907e-11
-2.00775
0.333162
2.78407e-11
-2.08578
0.345429
3.85625e-11
-2.16638
0.358674
5.63626e-11
-2.24969
0.372996
6.28164e-11
-2.3359
0.388504
7.71284e-11
-2.42516
0.405322
7.47528e-11
-2.51767
0.423593
8.10855e-11
-2.61358
0.443475
6.66317e-11
-2.71309
0.465149
6.33293e-11
-2.81635
0.488821
3.94748e-11
-2.92351
0.514726
3.06753e-11
-3.03469
0.543128
4.48919e-12
-3.14996
0.57433
-1.01891e-11
-3.26932
0.608676
-5.02074e-11
-3.39268
0.646557
-1.15243e-10
-3.5198
0.688413
-2.45662e-10
-3.65027
0.734746
-4.80475e-10
-3.78338
0.786121
-8.20083e-10
-3.91806
0.843173
-1.30984e-09
-4.05269
0.906612
-1.81203e-09
-4.18492
0.977222
-2.34217e-09
-4.31139
1.05585
-2.59783e-09
-4.42739
1.14336
-2.65513e-09
-4.52657
1.24054
-2.05063e-09
-4.6007
1.34793
-1.45937e-09
-4.63984
1.4655
-4.71666e-10
-4.63358
1.59218
4.42826e-10
-4.57329
1.72547
9.45382e-10
-4.45488
1.86134
9.97864e-10
-4.2805
1.99494
3.99354e-10
-4.0585
2.12161
-4.35842e-10
-3.79898
2.23835
-1.41432e-09
-3.51172
2.34363
-2.10768e-09
-3.20493
2.43705
-2.47546e-09
-2.88486
2.51895
-2.47321e-09
-2.556
2.58998
-2.22309e-09
-2.22144
2.65088
-1.8183e-09
-1.88325
2.70236
-1.393e-09
-1.5428
2.745
-1.01438e-09
-1.20098
2.77932
-7.23202e-10
-0.858337
2.80569
-5.33419e-10
-0.51519
2.82439
-4.27689e-10
-0.17176
2.83558
-3.67356e-10
0.171765
2.83932
-1.56664e-10
0.515195
2.83558
-4.41397e-10
0.858342
2.82439
-6.04146e-10
1.20099
2.80569
-1.24511e-09
2.77932
-1.63671e-09
-0.238096
0.230123
1.00263e-10
-0.281767
0.231096
1.09269e-10
-0.325632
0.232251
6.34586e-11
-0.36972
0.233592
4.56481e-11
-0.414064
0.235123
4.81157e-11
-0.458695
0.236849
5.4801e-11
-0.503646
0.238775
5.71686e-11
-0.548951
0.240906
5.81186e-11
-0.594645
0.243252
5.74618e-11
-0.640763
0.245817
5.78641e-11
-0.687342
0.248612
5.76137e-11
-0.734418
0.251646
5.87163e-11
-0.782032
0.254929
5.9036e-11
-0.830224
0.258472
6.07066e-11
-0.879034
0.262288
6.14697e-11
-0.928507
0.26639
6.36322e-11
-0.978687
0.270795
6.48699e-11
-1.02962
0.275518
6.75762e-11
-1.08136
0.280578
6.94405e-11
-1.13395
0.285993
7.28101e-11
-1.18744
0.291788
7.55228e-11
-1.2419
0.297984
7.96931e-11
-1.29737
0.304609
8.35083e-11
-1.35392
0.311691
8.85914e-11
-1.41161
0.319261
9.37611e-11
-1.4705
0.327356
9.97999e-11
-1.53066
0.336012
1.06532e-10
-1.59216
0.345272
1.13441e-10
-1.65506
0.355183
1.21832e-10
-1.71945
0.365796
1.29308e-10
-1.78539
0.377166
1.39231e-10
-1.85296
0.389357
1.46613e-10
-1.92224
0.402439
1.57517e-10
-1.99329
0.416486
1.63575e-10
-2.0662
0.431585
1.74216e-10
-2.14104
0.447828
1.76946e-10
-2.21785
0.465321
1.85232e-10
-2.29671
0.484179
1.82057e-10
-2.37765
0.50453
1.85557e-10
-2.46069
0.526516
1.74679e-10
-2.54584
0.550295
1.72713e-10
-2.63305
0.57604
1.56566e-10
-2.72227
0.603944
1.55752e-10
-2.81336
0.634219
1.37253e-10
-2.90613
0.667097
1.37262e-10
-3.00029
0.702833
1.29128e-10
-3.09543
0.741702
1.29292e-10
-3.19102
0.784001
1.11738e-10
-3.28632
0.830048
7.2591e-11
-3.38038
0.880177
-5.9388e-12
-3.47194
0.934732
-1.44345e-10
-3.55939
0.99406
-3.22171e-10
-3.64066
1.05849
-5.56908e-10
-3.71314
1.12834
-7.67909e-10
-3.77359
1.20381
-9.64331e-10
-3.81806
1.28501
-1.04954e-09
-3.84195
1.37181
-1.03641e-09
-3.84022
1.46377
-9.08937e-10
-3.80801
1.55997
-7.07292e-10
-3.74146
1.65892
-5.12655e-10
-3.63874
1.75863
-3.37178e-10
-3.5006
1.85679
-2.78133e-10
-3.33022
1.95123
-2.5642e-10
-3.13209
2.04022
-3.16183e-10
-2.91105
2.12259
-3.47215e-10
-2.67168
2.19768
-3.8271e-10
-2.41792
2.26519
-3.66857e-10
-2.153
2.32506
-3.41988e-10
-1.87951
2.37739
-2.95073e-10
-1.59948
2.42232
-2.54963e-10
-1.31451
2.46003
-2.17961e-10
-1.02585
2.49067
-1.94422e-10
-0.734545
2.51439
-1.85835e-10
-0.441432
2.53128
-1.87036e-10
-0.14726
2.54141
-1.85308e-10
0.147264
2.5448
-1.14245e-11
0.441435
2.54141
-3.30892e-10
0.734549
2.53128
-3.50033e-10
1.02586
2.51439
-9.17292e-10
2.49067
-1.14615e-09
-0.231237
0.272357
-4.98699e-11
-0.273612
0.273471
-6.65984e-11
-0.316155
0.274794
-7.1944e-11
-0.358892
0.276329
-9.42151e-11
-0.40185
0.278081
-8.57604e-11
-0.445056
0.280055
-7.45937e-11
-0.488539
0.282257
-6.90087e-11
-0.532327
0.284694
-6.67022e-11
-0.576448
0.287373
-6.74202e-11
-0.620932
0.290301
-6.78498e-11
-0.665809
0.293489
-6.97386e-11
-0.71111
0.296947
-7.05338e-11
-0.756866
0.300685
-7.25944e-11
-0.803109
0.304715
-7.33621e-11
-0.849872
0.309051
-7.53335e-11
-0.897189
0.313707
-7.58992e-11
-0.945094
0.3187
-7.7539e-11
-0.993622
0.324046
-7.77031e-11
-1.04281
0.329765
-7.87033e-11
-1.09269
0.335876
-7.82222e-11
-1.14331
0.342404
-7.82057e-11
-1.19469
0.349371
-7.68043e-11
-1.24689
0.356805
-7.53384e-11
-1.29994
0.364735
-7.27344e-11
-1.35387
0.373193
-6.93583e-11
-1.40872
0.382213
-6.52995e-11
-1.46455
0.391834
-5.95706e-11
-1.52137
0.402096
-5.38903e-11
-1.57923
0.413045
-4.546e-11
-1.63817
0.42473
-3.81592e-11
-1.6982
0.437204
-2.68899e-11
-1.75937
0.450526
-1.82568e-11
-1.82169
0.46476
-4.39736e-12
-1.88518
0.479976
4.82734e-12
-1.94985
0.49625
2.04077e-11
-2.01569
0.513666
2.88551e-11
-2.08268
0.532312
4.44604e-11
-2.15079
0.552289
5.01259e-11
-2.21996
0.573701
6.33366e-11
-2.29011
0.596666
6.41339e-11
-2.36112
0.621308
7.27054e-11
-2.43284
0.647761
6.79267e-11
-2.50507
0.676169
7.14983e-11
-2.57753
0.706685
6.33493e-11
-2.6499
0.73947
6.38605e-11
-2.72177
0.774694
5.64498e-11
-2.79259
0.812531
5.47663e-11
-2.86175
0.853159
4.58545e-11
-2.92846
0.896754
3.04909e-11
-2.99177
0.943485
5.77164e-13
-3.05054
0.993508
-5.70711e-11
-3.10343
1.04695
-1.39364e-10
-3.14886
1.10391
-2.63735e-10
-3.18495
1.16443
-4.07247e-10
-3.20961
1.22846
-5.76763e-10
-3.22047
1.29587
-7.34281e-10
-3.21502
1.36636
-8.70975e-10
-3.19071
1.43947
-9.62162e-10
-3.14525
1.51451
-9.91393e-10
-3.07692
1.5906
-9.74496e-10
-2.98491
1.66662
-8.94238e-10
-2.8695
1.74138
-8.0079e-10
-2.73199
1.81372
-6.69653e-10
-2.57441
1.88263
-5.57169e-10
-2.39913
1.94731
-4.30323e-10
-2.20862
2.00717
-3.3626e-10
-2.00522
2.06179
-2.42501e-10
-1.79108
2.11092
-1.83091e-10
-1.56808
2.15439
-1.2926e-10
-1.33788
2.19212
-1.00855e-10
-1.10192
2.22407
-7.51758e-11
-0.861475
2.25023
-6.42385e-11
-0.617669
2.27058
-5.81222e-11
-0.371523
2.28514
-5.62546e-11
-0.123994
2.29388
-3.98902e-11
0.123996
2.29681
1.22719e-10
0.371526
2.29388
-1.61837e-10
0.617671
2.28514
-1.53248e-10
0.861477
2.27058
-6.28056e-10
2.25023
-7.92282e-10
-0.223331
0.313123
5.63494e-11
-0.264215
0.314355
6.7699e-11
-0.305239
0.315818
3.81431e-11
-0.346425
0.317515
3.30762e-11
-0.387795
0.319451
3.41804e-11
-0.429371
0.321631
3.68659e-11
-0.471176
0.324062
3.69502e-11
-0.513233
0.326751
3.66311e-11
-0.555564
0.329704
3.5579e-11
-0.598193
0.33293
3.53675e-11
-0.641142
0.336439
3.48624e-11
-0.684436
0.34024
3.52254e-11
-0.728097
0.344346
3.51493e-11
-0.77215
0.348768
3.58529e-11
-0.816618
0.353519
3.60297e-11
-0.861526
0.358615
3.69667e-11
-0.906897
0.364071
3.73926e-11
-0.952755
0.369904
3.85856e-11
-0.999123
0.376133
3.93659e-11
-1.04602
0.382778
4.08983e-11
-1.09348
0.389862
4.2194e-11
-1.14152
0.397407
4.41677e-11
-1.19015
0.40544
4.6165e-11
-1.23941
0.413989
4.86705e-11
-1.2893
0.423084
5.15582e-11
-1.33984
0.432757
5.46484e-11
-1.39105
0.443045
5.85893e-11
-1.44294
0.453984
6.22456e-11
-1.49551
0.465616
6.73368e-11
-1.54877
0.477985
7.14278e-11
-1.6027
0.49114
7.7645e-11
-1.65731
0.505132
8.18705e-11
-1.71257
0.520017
8.89899e-11
-1.76844
0.535854
9.28132e-11
-1.8249
0.552707
1.00307e-10
-1.88188
0.570645
1.02883e-10
-1.93931
0.589741
1.09823e-10
-1.99709
0.610074
1.09964e-10
-2.05512
0.631726
1.14943e-10
-2.11324
0.654784
1.11578e-10
-2.17127
0.679341
1.13537e-10
-2.229
0.705492
1.05732e-10
-2.28617
0.733336
1.04287e-10
-2.34246
0.762975
8.36715e-11
-2.3975
0.79451
8.79988e-11
-2.45085
0.828043
7.45205e-11
-2.50199
0.863673
6.8277e-11
-2.55032
0.901489
5.46777e-11
-2.59514
0.941575
4.48564e-11
-2.63565
0.983994
2.51389e-11
-2.67093
1.02879
1.25537e-12
-2.69996
1.07598
-3.89612e-11
-2.72159
1.12554
-9.21573e-11
-2.73456
1.1774
-1.65903e-10
-2.73752
1.23143
-2.51953e-10
-2.72908
1.28743
-3.5146e-10
-2.70783
1.34511
-4.46202e-10
-2.67245
1.40408
-5.36229e-10
-2.6218
1.46387
-5.97394e-10
-2.55509
1.52389
-6.38835e-10
-2.47195
1.58347
-6.3955e-10
-2.37251
1.64194
-6.21699e-10
-2.25738
1.69859
-5.71121e-10
-2.12756
1.75281
-5.15625e-10
-1.98427
1.80403
-4.45026e-10
-1.82891
1.8518
-3.83578e-10
-1.66288
1.89576
-3.21812e-10
-1.48758
1.93562
-2.75871e-10
-1.30435
1.97116
-2.35717e-10
-1.11445
2.00222
-2.09876e-10
-0.919049
2.02867
-1.89184e-10
-0.719259
2.05044
-1.78921e-10
-0.516116
2.06744
-1.7509e-10
-0.310609
2.07963
-1.75554e-10
-0.103693
2.08696
-1.66597e-10
0.103694
2.08942
-6.5551e-11
0.310611
2.08697
-2.01584e-10
0.516118
2.07963
-2.06177e-10
0.719261
2.06744
-4.70437e-10
2.05044
-6.58681e-10
-0.214576
0.352265
-6.17096e-11
-0.253813
0.353592
-7.28479e-11
-0.29316
0.355166
-6.87554e-11
-0.332637
0.356991
-7.97221e-11
-0.372259
0.359073
-7.41516e-11
-0.412044
0.361417
-6.76815e-11
-0.452009
0.364028
-6.46068e-11
-0.492171
0.366913
-6.34679e-11
-0.532547
0.37008
-6.42099e-11
-0.573154
0.373537
-6.47808e-11
-0.614008
0.377293
-6.63037e-11
-0.655126
0.381358
-6.71903e-11
-0.696524
0.385744
-6.88921e-11
-0.738217
0.390461
-6.986e-11
-0.78022
0.395523
-7.15655e-11
-0.822549
0.400944
-7.24934e-11
-0.865218
0.406739
-7.40204e-11
-0.908239
0.412925
-7.47573e-11
-0.951624
0.419518
-7.58719e-11
-0.995386
0.426539
-7.62341e-11
-1.03953
0.434008
-7.66534e-11
-1.08407
0.441946
-7.64313e-11
-1.12901
0.450378
-7.58313e-11
-1.17435
0.459329
-7.48035e-11
-1.22009
0.468827
-7.2834e-11
-1.26623
0.4789
-7.07869e-11
-1.31277
0.48958
-6.71006e-11
-1.35969
0.500901
-6.38601e-11
-1.40697
0.512898
-5.81538e-11
-1.45459
0.525609
-5.36276e-11
-1.50253
0.539076
-4.5704e-11
-1.55074
0.55334
-3.9937e-11
-1.59917
0.568449
-2.97803e-11
-1.64777
0.58445
-2.30163e-11
-1.69645
0.601395
-1.08849e-11
-1.74514
0.619336
-3.63281e-12
-1.79373
0.63833
9.85219e-12
-1.84209
0.658436
1.67827e-11
-1.89008
0.679712
3.06055e-11
-1.93752
0.702222
3.618e-11
-1.98421
0.726028
4.90775e-11
-2.02991
0.751192
5.22823e-11
-2.07435
0.777779
6.31089e-11
-2.11722
0.805847
6.35243e-11
-2.15817
0.835455
7.16619e-11
-2.19678
0.866655
6.95394e-11
-2.2326
0.899492
7.54761e-11
-2.26511
0.934001
7.17024e-11
-2.29374
0.970203
7.5418e-11
-2.31785
1.00811
6.93102e-11
-2.33675
1.04769
6.86203e-11
-2.34969
1.08892
5.63197e-11
-2.35588
1.13172
4.64911e-11
-2.35446
1.17599
2.28315e-11
-2.34461
1.22157
9.78528e-13
-2.32546
1.26828
-3.38744e-11
-2.29621
1.31586
-6.20068e-11
-2.25615
1.36402
-9.74024e-11
-2.2047
1.41242
-1.17114e-10
-2.14147
1.46065
-1.3692e-10
-2.06629
1.50829
-1.34719e-10
-1.97925
1.5549
-1.29699e-10
-1.88069
1.60004
-1.03852e-10
-1.77116
1.64327
-7.78988e-11
-1.65137
1.68424
-3.81784e-11
-1.52214
1.72258
-3.36313e-12
-1.38438
1.758
3.71156e-11
-1.23902
1.79026
6.90816e-11
-1.08701
1.81915
1.01014e-10
-0.929281
1.8445
1.23632e-10
-0.766768
1.86616
1.43261e-10
-0.600369
1.88404
1.54193e-10
-0.430969
1.89804
1.59527e-10
-0.259434
1.90809
1.6593e-10
-0.0866199
1.91415
1.86869e-10
0.0866212
1.91618
2.97417e-10
0.259435
1.91415
1.57222e-10
0.43097
1.90809
2.65848e-10
0.60037
1.89804
6.13798e-11
1.88404
1.92494e-11
-0.205147
0.389661
2.67336e-11
-0.242613
0.391058
3.77862e-11
-0.280162
0.392715
2.12804e-11
-0.317807
0.394636
2.33612e-11
-0.35556
0.396826
2.28237e-11
-0.393432
0.399289
2.25041e-11
-0.431436
0.402032
2.11848e-11
-0.469584
0.40506
2.02173e-11
-0.507886
0.408382
1.91632e-11
-0.546354
0.412004
1.87076e-11
-0.584997
0.415936
1.82062e-11
-0.623826
0.420187
1.81635e-11
-0.662849
0.424767
1.79514e-11
-0.702075
0.429687
1.80778e-11
-0.741511
0.434959
1.79958e-11
-0.781164
0.440597
1.81961e-11
-0.821039
0.446614
1.8232e-11
-0.861139
0.453025
1.85141e-11
-0.901468
0.459847
1.87367e-11
-0.942025
0.467096
1.91525e-11
-0.982809
0.474792
1.96666e-11
-1.02382
0.482953
2.02808e-11
-1.06504
0.491601
2.12079e-11
-1.10647
0.500759
2.20812e-11
-1.14809
0.510449
2.35457e-11
-1.18989
0.520698
2.4719e-11
-1.23184
0.531532
2.68306e-11
-1.27392
0.542979
2.83072e-11
-1.31609
0.555068
3.11388e-11
-1.35831
0.567832
3.28608e-11
-1.40054
0.581304
3.64181e-11
-1.44272
0.595516
3.82405e-11
-1.48477
0.610507
4.24262e-11
-1.52664
0.626312
4.40903e-11
-1.56821
0.64297
4.86652e-11
-1.6094
0.66052
4.97745e-11
-1.65007
0.679004
5.43208e-11
-1.6901
0.698462
5.43319e-11
-1.72932
0.718934
5.82379e-11
-1.76756
0.740462
5.64662e-11
-1.80461
0.763084
5.9036e-11
-1.84026
0.786838
5.49022e-11
-1.87424
0.81176
5.535e-11
-1.90627
0.837879
4.83371e-11
-1.93604
0.865223
4.69955e-11
-1.96319
0.89381
3.66726e-11
-1.98735
0.923651
3.24228e-11
-2.0081
0.954748
2.07265e-11
-2.02498
0.987088
1.46779e-11
-2.03752
1.02065
1.61703e-12
-2.04521
1.05538
-5.81384e-12
-2.0475
1.09122
-2.02472e-11
-2.04386
1.12808
-2.9495e-11
-2.03373
1.16586
-4.60974e-11
-2.01656
1.20441
-5.77412e-11
-1.99184
1.24356
-7.65816e-11
-1.95909
1.28312
-8.94647e-11
-1.91792
1.32285
-1.07987e-10
-1.86801
1.36251
-1.1832e-10
-1.80917
1.40181
-1.31757e-10
-1.74134
1.44046
-1.35097e-10
-1.6646
1.47816
-1.39559e-10
-1.57916
1.5146
-1.33965e-10
-1.48538
1.54949
-1.29025e-10
-1.3837
1.58256
-1.16152e-10
-1.27466
1.61354
-1.04735e-10
-1.15888
1.64222
-8.85898e-11
-1.03701
1.66839
-7.52483e-11
-0.90973
1.69187
-6.04535e-11
-0.777749
1.71251
-4.97303e-11
-0.641784
1.7302
-4.04741e-11
-0.502555
1.74481
-3.64003e-11
-0.360785
1.75627
-3.67273e-11
-0.217199
1.76451
-3.84667e-11
-0.0725211
1.76947
-3.41977e-11
0.0725221
1.77114
1.11235e-11
0.2172
1.76947
-2.38079e-11
0.360786
1.76451
-3.17049e-12
0.502555
1.75627
-6.94144e-11
1.74481
-1.48945e-10
-0.195214
0.42522
-6.80971e-11
-0.230821
0.426664
-7.46126e-11
-0.266483
0.428377
-6.47369e-11
-0.302209
0.430362
-6.68796e-11
-0.338006
0.432623
-6.31336e-11
-0.373883
0.435165
-5.98396e-11
-0.409845
0.437994
-5.83398e-11
-0.445899
0.441115
-5.78309e-11
-0.482052
0.444535
-5.83662e-11
-0.518308
0.448261
-5.88727e-11
-0.554673
0.452301
-5.99417e-11
-0.591149
0.456663
-6.07459e-11
-0.627741
0.461358
-6.19936e-11
-0.664449
0.466395
-6.2938e-11
-0.701274
0.471785
-6.42296e-11
-0.738216
0.477539
-6.52167e-11
-0.775272
0.48367
-6.64115e-11
-0.812439
0.490192
-6.73277e-11
-0.849711
0.497118
-6.8259e-11
-0.887079
0.504464
-6.89785e-11
-0.924533
0.512246
-6.94575e-11
-0.962061
0.520481
-6.98418e-11
-0.999645
0.529186
-6.96505e-11
-1.03727
0.53838
-6.95464e-11
-1.0749
0.548084
-6.84474e-11
-1.11252
0.558319
-6.77032e-11
-1.15009
0.569105
-6.54561e-11
-1.18758
0.580467
-6.39357e-11
-1.22494
0.592427
-6.03191e-11
-1.26212
0.605011
-5.79244e-11
-1.29906
0.618244
-5.27663e-11
-1.33569
0.632151
-4.94622e-11
-1.37195
0.646761
-4.26764e-11
-1.40774
0.6621
-3.85195e-11
-1.44296
0.678195
-3.01435e-11
-1.47751
0.695074
-2.53041e-11
-1.51127
0.712764
-1.55334e-11
-1.54411
0.731292
-1.03102e-11
-1.57585
0.750683
4.85959e-13
-1.60635
0.77096
5.67879e-12
-1.63541
0.792146
1.69818e-11
-1.66284
0.814259
2.1679e-11
-1.68839
0.837315
3.28992e-11
-1.71184
0.861324
3.66824e-11
-1.7329
0.88629
4.73817e-11
-1.75131
0.912214
5.00116e-11
-1.76674
0.939085
5.9886e-11
-1.77888
0.966885
6.16763e-11
-1.78737
0.995584
7.0914e-11
-1.79187
1.02514
7.22391e-11
-1.792
1.0555
8.12143e-11
-1.78738
1.0866
8.25557e-11
-1.77764
1.11834
9.15509e-11
-1.76241
1.15063
9.31096e-11
-1.74134
1.18334
1.02145e-10
-1.71411
1.21633
1.03926e-10
-1.68044
1.24945
1.12989e-10
-1.6401
1.28251
1.15205e-10
-1.59293
1.31533
1.24571e-10
-1.53882
1.34771
1.27826e-10
-1.47778
1.37942
1.37953e-10
-1.40988
1.41026
1.42861e-10
-1.33529
1.44
1.53926e-10
-1.25424
1.46844
1.60583e-10
-1.16706
1.49537
1.7214e-10
-1.07412
1.52061
1.79864e-10
-0.975864
1.54396
1.9077e-10
-0.872765
1.56529
1.98091e-10
-0.765333
1.58444
2.06575e-10
-0.654107
1.60129
2.11433e-10
-0.539643
1.61573
2.1527e-10
-0.422511
1.62768
2.15272e-10
-0.303292
1.63705
2.12425e-10
-0.182576
1.64379
2.11353e-10
-0.0609592
1.64786
2.1778e-10
0.0609599
1.64922
2.62371e-10
0.182577
1.64786
2.09718e-10
0.303293
1.64379
2.91835e-10
0.422511
1.63705
2.31134e-10
1.62768
2.29551e-10
-0.184943
0.458882
1.67783e-11
-0.218631
0.460352
2.7832e-11
-0.25235
0.462096
1.7863e-11
-0.286103
0.464115
2.38365e-11
-0.319894
0.466414
2.23214e-11
-0.353725
0.468997
2.02029e-11
-0.3876
0.471869
1.79632e-11
-0.42152
0.475035
1.64748e-11
-0.455486
0.478501
1.52948e-11
-0.4895
0.482274
1.45584e-11
-0.52356
0.486361
1.39563e-11
-0.557666
0.490769
1.35578e-11
-0.591814
0.495507
1.31944e-11
-0.626002
0.500583
1.28733e-11
-0.660224
0.506007
1.25575e-11
-0.694474
0.511788
1.22107e-11
-0.728742
0.517939
1.19776e-11
-0.763021
0.52447
1.16877e-11
-0.797296
0.531394
1.16342e-11
-0.831554
0.538722
1.14218e-11
-0.865777
0.54647
1.15117e-11
-0.899946
0.554649
1.13282e-11
-0.934037
0.563277
1.16477e-11
-0.968024
0.572367
1.15613e-11
-1.00188
0.581936
1.21899e-11
-1.03556
0.592001
1.22286e-11
-1.06903
0.602579
1.32354e-11
-1.10225
0.613688
1.34078e-11
-1.13517
0.625345
1.48455e-11
-1.16773
0.637569
1.51374e-11
-1.19987
0.650379
1.70316e-11
-1.23151
0.663795
1.73936e-11
-1.26258
0.677834
1.97276e-11
-1.293
0.692515
2.00652e-11
-1.32266
0.707857
2.27645e-11
-1.35146
0.723878
2.29341e-11
-1.37929
0.740593
2.58597e-11
-1.40602
0.758018
2.56702e-11
-1.4315
0.776167
2.86244e-11
-1.45559
0.795051
2.78294e-11
-1.47813
0.814679
3.05704e-11
-1.49892
0.835056
2.90102e-11
-1.5178
0.856185
3.1238e-11
-1.53453
0.878063
2.86922e-11
-1.54892
0.900681
3.00369e-11
-1.56074
0.924026
2.8776e-11
-1.56973
0.948078
2.74396e-11
-1.57565
0.972807
2.34191e-11
-1.57825
0.998178
2.38523e-11
-1.57725
1.02414
1.92866e-11
-1.57239
1.05065
1.96064e-11
-1.56341
1.07762
1.52408e-11
-1.55005
1.10498
1.59474e-11
-1.53207
1.13265
1.22861e-11
-1.50924
1.16051
1.37277e-11
-1.48135
1.18845
1.10729e-11
-1.44825
1.21635
1.33841e-11
-1.4098
1.24406
1.18386e-11
-1.36592
1.27145
1.49726e-11
-1.31657
1.29835
1.45239e-11
-1.26176
1.32462
1.83448e-11
-1.20159
1.35008
1.89386e-11
-1.13618
1.37459
2.32856e-11
-1.06571
1.39798
2.48325e-11
-0.99043
1.42009
2.95035e-11
-0.91062
1.4408
3.1762e-11
-0.826605
1.45995
3.633e-11
-0.738746
1.47743
3.86442e-11
-0.647434
1.49313
4.21464e-11
-0.553083
1.50694
4.32293e-11
-0.45613
1.51878
4.39997e-11
-0.357025
1.52857
4.19554e-11
-0.256233
1.53626
3.80092e-11
-0.154228
1.54179
3.31073e-11
-0.0514907
1.54512
3.0125e-11
0.0514912
1.54623
3.86814e-11
0.154228
1.54512
3.40247e-11
0.256234
1.54179
4.355e-11
0.357026
1.53626
4.32485e-11
1.52857
1.20328e-11
-0.174485
0.490617
-4.8554e-11
-0.206226
0.492094
-5.54396e-11
-0.237975
0.493844
-4.44656e-11
-0.269731
0.495871
-4.70714e-11
-0.301494
0.498177
-4.4974e-11
-0.333264
0.500767