/*--------------------------------*- C++ -*----------------------------------*\
| =========                 |                                                 |
| \\      /  F ield         | OpenFOAM: The Open Source CFD Toolbox           |
|  \\    /   O peration     | Version:  2306                                  |
|   \\  /    A nd           | Website:  www.openfoam.com                      |
|    \\/     M anipulation  |                                                 |
\*---------------------------------------------------------------------------*/
FoamFile
{
    version     2.0;
    format      ascii;
    arch        "LSB;label=32;scalar=64";
    class       volVectorField;
    location    "37.5";
    object      U;
}
// * * * * * * * * * * * * * * * * * * * * * * * * * * * * * * * * * * * * * //

dimensions      [0 1 -1 0 0 0 0];

internalField   nonuniform List<vector> 
14400
(
(-0.00325109 0.000187424 -2.12852e-11)
(-0.00390742 0.000188118 -2.04019e-11)
(-0.00456696 0.000188882 -1.34747e-11)
(-0.00523022 0.000189722 -1.39167e-11)
(-0.00589772 0.000190643 -1.40362e-11)
(-0.00657002 0.000191649 -1.46172e-11)
(-0.00724768 0.000192742 -1.50203e-11)
(-0.00793126 0.000193924 -1.57004e-11)
(-0.00862138 0.000195198 -1.6183e-11)
(-0.00931865 0.000196562 -1.68858e-11)
(-0.0100237 0.000198018 -1.74229e-11)
(-0.0107373 0.000199564 -1.81488e-11)
(-0.01146 0.000201198 -1.87643e-11)
(-0.0121926 0.000202919 -1.95055e-11)
(-0.0129358 0.000204722 -2.02103e-11)
(-0.0136906 0.000206603 -2.09393e-11)
(-0.0144577 0.000208557 -2.17318e-11)
(-0.015238 0.000210576 -2.2403e-11)
(-0.0160324 0.000212652 -2.32685e-11)
(-0.016842 0.000214773 -2.38173e-11)
(-0.0176678 0.000216927 -2.47247e-11)
(-0.018511 0.000219098 -2.50651e-11)
(-0.0193726 0.000221265 -2.59613e-11)
(-0.0202541 0.000223407 -2.59836e-11)
(-0.0211568 0.000225496 -2.67863e-11)
(-0.0220821 0.000227499 -2.63557e-11)
(-0.0230316 0.00022938 -2.69436e-11)
(-0.0240069 0.000231094 -2.59028e-11)
(-0.02501 0.000232591 -2.61066e-11)
(-0.0260428 0.000233815 -2.42848e-11)
(-0.0271074 0.000234702 -2.3879e-11)
(-0.0282061 0.000235184 -2.11163e-11)
(-0.0293416 0.000235188 -1.98224e-11)
(-0.0305166 0.00023464 -1.60178e-11)
(-0.0317344 0.000233472 -1.3523e-11)
(-0.0329982 0.00023163 -8.70542e-12)
(-0.0343122 0.000229087 -4.68168e-12)
(-0.0356808 0.00022587 9.48158e-13)
(-0.0371092 0.000222088 6.92297e-12)
(-0.0386033 0.000217985 1.31017e-11)
(-0.0401705 0.000214015 2.19091e-11)
(-0.0418194 0.000210953 2.85902e-11)
(-0.0435605 0.00021006 4.21903e-11)
(-0.0454073 0.000213326 4.91098e-11)
(-0.0473766 0.000223845 6.98446e-11)
(-0.0494906 0.000246394 7.26086e-11)
(-0.0517784 0.000288381 9.6598e-11)
(-0.0542789 0.000361472 7.84261e-11)
(-0.0570457 0.000484554 7.8015e-11)
(-0.0601537 0.000689273 1.27222e-11)
(-0.0637102 0.00103058 -7.66357e-11)
(-0.0678744 0.00160679 -1.81463e-10)
(-0.0728854 0.0025966 -4.04386e-10)
(-0.0790961 0.00432186 -4.71461e-10)
(-0.0870653 0.00735182 -7.16253e-10)
(-0.097914 0.0127229 -7.8219e-10)
(-0.113569 0.022199 -1.01612e-09)
(-0.135536 0.0367038 -1.04349e-09)
(-0.163868 0.053136 -1.61146e-09)
(-0.197095 0.0654601 -3.41656e-10)
(-0.262396 0.0895828 7.45284e-11)
(-0.303508 0.34705 1.56593e-09)
(-0.230709 0.43561 3.67654e-09)
(-0.191038 0.460817 3.58663e-09)
(-0.167758 0.470105 3.2282e-09)
(-0.147383 0.474487 2.56226e-09)
(-0.128624 0.476994 1.67297e-09)
(-0.111393 0.478705 1.01595e-09)
(-0.0953541 0.480017 3.69894e-10)
(-0.0802236 0.481076 8.71314e-11)
(-0.0658074 0.481945 -1.43202e-10)
(-0.0519582 0.482655 -1.2075e-10)
(-0.0385538 0.483229 -8.16339e-11)
(-0.0254911 0.483681 5.51634e-11)
(-0.0126856 0.484 2.15023e-10)
(-5.98568e-07 0.484124 3.10699e-10)
(0.0126844 0.484 7.01813e-10)
(0.0254898 0.483681 -2.68944e-10)
(0.0385524 0.483229 3.00497e-09)
(0.0519568 0.482656 -6.9993e-10)
(-0.0072556 0.00338251 -1.97862e-11)
(-0.00872004 0.00339791 -2.05798e-11)
(-0.0101918 0.00341603 -1.3998e-11)
(-0.011672 0.00343692 -1.44583e-11)
(-0.0131621 0.00346067 -1.47446e-11)
(-0.0146632 0.00348735 -1.52677e-11)
(-0.0161768 0.00351705 -1.58336e-11)
(-0.0177042 0.00354988 -1.645e-11)
(-0.0192469 0.00358596 -1.70972e-11)
(-0.0208064 0.00362541 -1.77491e-11)
(-0.0223841 0.00366837 -1.84517e-11)
(-0.0239818 0.003715 -1.91455e-11)
(-0.0256012 0.00376545 -1.99204e-11)
(-0.027244 0.00381992 -2.06547e-11)
(-0.028912 0.00387861 -2.15032e-11)
(-0.0306074 0.00394174 -2.22591e-11)
(-0.0323321 0.00400957 -2.31662e-11)
(-0.0340884 0.00408235 -2.39082e-11)
(-0.0358787 0.00416039 -2.48413e-11)
(-0.0377054 0.00424402 -2.55157e-11)
(-0.0395713 0.00433359 -2.64208e-11)
(-0.0414792 0.0044295 -2.69525e-11)
(-0.0434322 0.0045322 -2.77477e-11)
(-0.0454337 0.00464216 -2.80362e-11)
(-0.0474871 0.00475992 -2.86043e-11)
(-0.0495964 0.00488609 -2.85209e-11)
(-0.0517658 0.00502133 -2.87015e-11)
(-0.0539998 0.00516637 -2.80883e-11)
(-0.0563034 0.00532207 -2.76703e-11)
(-0.058682 0.00548936 -2.63455e-11)
(-0.0611416 0.00566931 -2.50647e-11)
(-0.0636886 0.00586314 -2.28408e-11)
(-0.0663303 0.00607227 -2.03923e-11)
(-0.0690748 0.00629833 -1.71171e-11)
(-0.0719307 0.00654323 -1.31923e-11)
(-0.0749081 0.00680927 -8.815e-12)
(-0.078018 0.00709918 -3.15244e-12)
(-0.0812727 0.00741631 2.23283e-12)
(-0.0846864 0.00776482 9.86633e-12)
(-0.0882749 0.00814993 1.61118e-11)
(-0.0920564 0.0085783 2.62169e-11)
(-0.0960518 0.00905858 3.34121e-11)
(-0.100285 0.00960214 4.74854e-11)
(-0.104784 0.0102241 5.60314e-11)
(-0.109582 0.010945 7.57574e-11)
(-0.114717 0.0117926 8.29379e-11)
(-0.120236 0.0128056 1.04597e-10)
(-0.126192 0.0140381 9.7548e-11)
(-0.132653 0.0155676 9.51124e-11)
(-0.139701 0.0175078 5.00321e-11)
(-0.147434 0.0200282 -3.57053e-11)
(-0.155977 0.0233867 -1.27074e-10)
(-0.16548 0.0279763 -3.33153e-10)
(-0.176126 0.0343861 -4.25762e-10)
(-0.188145 0.0434672 -6.38323e-10)
(-0.2018 0.0563897 -7.02545e-10)
(-0.217144 0.0747407 -7.25777e-10)
(-0.234023 0.101009 -7.39932e-10)
(-0.253091 0.139351 -5.21972e-10)
(-0.276018 0.192121 -4.65167e-10)
(-0.299649 0.252342 2.13469e-10)
(-0.300041 0.309454 7.13682e-10)
(-0.271279 0.34916 1.11652e-09)
(-0.239581 0.377571 1.1883e-09)
(-0.211694 0.396621 1.05323e-09)
(-0.186637 0.409359 8.7988e-10)
(-0.163673 0.418234 5.51695e-10)
(-0.142368 0.424687 3.55436e-10)
(-0.122355 0.429533 1.22167e-10)
(-0.10334 0.433248 2.85698e-11)
(-0.0850944 0.436124 -4.80625e-11)
(-0.0674396 0.43834 -4.67761e-11)
(-0.0502256 0.440011 -2.42627e-11)
(-0.0333248 0.441206 1.75687e-11)
(-0.0166346 0.441949 7.38928e-11)
(2.05767e-07 0.442207 1.20907e-10)
(0.016635 0.441949 1.91537e-10)
(0.0333253 0.441206 1.48335e-10)
(0.0502261 0.440011 3.96715e-10)
(0.0674402 0.43834 4.15349e-10)
(-0.0086243 0.00789591 -2.18447e-11)
(-0.0103645 0.00793177 -1.96051e-11)
(-0.0121132 0.00797421 -1.38813e-11)
(-0.0138718 0.00802337 -1.40522e-11)
(-0.0156419 0.0080794 -1.4335e-11)
(-0.017425 0.00814251 -1.47454e-11)
(-0.0192226 0.0082129 -1.53002e-11)
(-0.0210366 0.00829083 -1.58238e-11)
(-0.0228685 0.00837658 -1.646e-11)
(-0.0247201 0.00847045 -1.70227e-11)
(-0.0265933 0.00857279 -1.77157e-11)
(-0.0284899 0.00868397 -1.83199e-11)
(-0.0304121 0.00880443 -1.90809e-11)
(-0.0323618 0.00893463 -1.97242e-11)
(-0.0343413 0.00907508 -2.05497e-11)
(-0.0363529 0.00922635 -2.12157e-11)
(-0.0383992 0.00938906 -2.20871e-11)
(-0.0404827 0.00956392 -2.27457e-11)
(-0.0426062 0.00975169 -2.36278e-11)
(-0.0447727 0.00995322 -2.42331e-11)
(-0.0469854 0.0101694 -2.50692e-11)
(-0.0492476 0.0104014 -2.55564e-11)
(-0.0515629 0.0106502 -2.62624e-11)
(-0.0539354 0.0109172 -2.65441e-11)
(-0.0563692 0.0112038 -2.7002e-11)
(-0.0588688 0.0115116 -2.69654e-11)
(-0.0614393 0.0118424 -2.70167e-11)
(-0.064086 0.0121981 -2.65238e-11)
(-0.0668148 0.0125811 -2.59651e-11)
(-0.0696322 0.0129939 -2.48574e-11)
(-0.072545 0.0134394 -2.34417e-11)
(-0.0755611 0.0139209 -2.15577e-11)
(-0.078689 0.0144421 -1.9011e-11)
(-0.0819382 0.0150075 -1.62223e-11)
(-0.085319 0.015622 -1.22868e-11)
(-0.0888432 0.0162914 -8.56112e-12)
(-0.0925237 0.0170226 -3.06578e-12)
(-0.096375 0.0178235 1.46861e-12)
(-0.100413 0.0187038 8.55503e-12)
(-0.104657 0.0196747 1.3614e-11)
(-0.109126 0.0207501 2.22656e-11)
(-0.113845 0.0219466 2.75371e-11)
(-0.118838 0.0232846 3.79003e-11)
(-0.124135 0.0247898 4.29219e-11)
(-0.129769 0.0264937 5.50296e-11)
(-0.135776 0.0284369 5.76573e-11)
(-0.142194 0.0306711 6.81709e-11)
(-0.149069 0.0332634 6.10745e-11)
(-0.156444 0.0363033 5.48819e-11)
(-0.164367 0.0399111 2.59991e-11)
(-0.17288 0.0442534 -2.7676e-11)
(-0.182014 0.049564 -8.19254e-11)
(-0.191778 0.0561739 -1.99486e-10)
(-0.202135 0.0645466 -2.56823e-10)
(-0.212974 0.0753134 -3.63755e-10)
(-0.224066 0.089299 -3.83584e-10)
(-0.234989 0.107518 -3.75964e-10)
(-0.244979 0.131006 -3.4063e-10)
(-0.25273 0.160181 -1.93677e-10)
(-0.256672 0.194173 -9.57651e-11)
(-0.255299 0.230923 8.26311e-11)
(-0.246693 0.267586 1.85027e-10)
(-0.231687 0.298121 2.83265e-10)
(-0.213765 0.322335 3.02905e-10)
(-0.194697 0.340985 2.88613e-10)
(-0.175346 0.355187 2.44512e-10)
(-0.156196 0.366071 1.77569e-10)
(-0.137447 0.374525 1.24094e-10)
(-0.11915 0.38117 7.20147e-11)
(-0.101289 0.386426 4.34662e-11)
(-0.0838169 0.390571 2.45557e-11)
(-0.0666729 0.393795 2.08593e-11)
(-0.0497888 0.396223 2.50991e-11)
(-0.033096 0.397933 3.25712e-11)
(-0.0165379 0.398964 4.35826e-11)
(2.25684e-07 0.399313 5.34713e-11)
(0.0165384 0.398964 7.24506e-11)
(0.0330965 0.397933 4.18796e-11)
(0.0497893 0.396223 1.63701e-10)
(0.0666734 0.393795 8.57503e-11)
(-0.00887053 0.012658 -1.2698e-11)
(-0.0106598 0.0127147 -1.39982e-11)
(-0.0124575 0.0127821 -9.53137e-12)
(-0.014265 0.0128602 -9.97148e-12)
(-0.0160839 0.0129493 -1.02305e-11)
(-0.0179156 0.0130498 -1.05639e-11)
(-0.0197619 0.0131619 -1.09958e-11)
(-0.0216242 0.0132861 -1.13797e-11)
(-0.0235043 0.0134228 -1.18813e-11)
(-0.025404 0.0135725 -1.2293e-11)
(-0.027325 0.0137358 -1.28478e-11)
(-0.0292691 0.0139132 -1.32914e-11)
(-0.0312385 0.0141055 -1.39054e-11)
(-0.0332351 0.0143133 -1.43776e-11)
(-0.035261 0.0145374 -1.50458e-11)
(-0.0373186 0.0147789 -1.5533e-11)
(-0.0394103 0.0150387 -1.62391e-11)
(-0.0415385 0.0153179 -1.67177e-11)
(-0.043706 0.0156177 -1.74316e-11)
(-0.0459155 0.0159394 -1.78656e-11)
(-0.0481701 0.0162847 -1.85391e-11)
(-0.0504731 0.016655 -1.88774e-11)
(-0.0528277 0.0170523 -1.94389e-11)
(-0.0552378 0.0174786 -1.9613e-11)
(-0.0577072 0.0179362 -1.99621e-11)
(-0.0602401 0.0184276 -1.98839e-11)
(-0.0628411 0.0189556 -1.98866e-11)
(-0.0655151 0.0195234 -1.94493e-11)
(-0.0682673 0.0201347 -1.89354e-11)
(-0.0711036 0.0207933 -1.80183e-11)
(-0.07403 0.0215039 -1.67838e-11)
(-0.0770532 0.0222717 -1.52655e-11)
(-0.0801807 0.0231024 -1.30875e-11)
(-0.0834204 0.0240029 -1.08727e-11)
(-0.0867808 0.0249809 -7.54401e-12)
(-0.0902715 0.0260452 -4.60785e-12)
(-0.0939027 0.027206 4.40677e-15)
(-0.0976857 0.0284753 3.56751e-12)
(-0.101633 0.029867 9.46418e-12)
(-0.105757 0.0313974 1.34363e-11)
(-0.110073 0.0330855 2.05244e-11)
(-0.114597 0.0349541 2.47532e-11)
(-0.119344 0.0370299 3.26419e-11)
(-0.124333 0.0393449 3.65585e-11)
(-0.129583 0.0419376 4.51491e-11)
(-0.135112 0.0448539 4.81673e-11)
(-0.14094 0.0481497 5.53161e-11)
(-0.147082 0.0518927 5.48104e-11)
(-0.153554 0.0561663 5.34216e-11)
(-0.160362 0.0610732 4.49943e-11)
(-0.167504 0.0667428 2.19297e-11)
(-0.174955 0.0733383 4.16501e-12)
(-0.182661 0.081068 -4.5548e-11)
(-0.190519 0.0901953 -6.45355e-11)
(-0.198345 0.101045 -1.10568e-10)
(-0.205853 0.114 -1.16925e-10)
(-0.212603 0.129462 -1.11212e-10)
(-0.217966 0.147758 -9.26355e-11)
(-0.221119 0.168908 -2.80945e-11)
(-0.221201 0.192338 8.05725e-12)
(-0.217582 0.216795 8.15673e-11)
(-0.2101 0.240642 1.11737e-10)
(-0.199342 0.262142 1.44706e-10)
(-0.186308 0.28074 1.48359e-10)
(-0.171803 0.29639 1.40377e-10)
(-0.156459 0.309355 1.24076e-10)
(-0.140709 0.320035 1.00396e-10)
(-0.124812 0.328822 8.24082e-11)
(-0.108913 0.33604 6.45808e-11)
(-0.0930854 0.341938 5.5294e-11)
(-0.0773608 0.346699 4.91345e-11)
(-0.0617434 0.350457 4.83149e-11)
(-0.0462211 0.35331 5.0038e-11)
(-0.0307748 0.355321 5.26672e-11)
(-0.0153908 0.356523 5.65261e-11)
(1.44573e-07 0.356927 5.83148e-11)
(0.0153911 0.356524 6.70008e-11)
(0.0307751 0.355321 3.57875e-11)
(0.0462214 0.35331 1.3775e-10)
(0.0617437 0.350458 4.62346e-11)
(-0.00877949 0.0174158 -1.78252e-11)
(-0.0105496 0.0174925 -1.52792e-11)
(-0.0123275 0.0175835 -1.1035e-11)
(-0.0141146 0.0176892 -1.10871e-11)
(-0.0159123 0.0178098 -1.12734e-11)
(-0.0177219 0.0179458 -1.15297e-11)
(-0.0195451 0.0180977 -1.19134e-11)
(-0.0213832 0.0182659 -1.22673e-11)
(-0.0232378 0.018451 -1.27188e-11)
(-0.0251105 0.0186537 -1.31115e-11)
(-0.027003 0.0188747 -1.36122e-11)
(-0.0289169 0.0191148 -1.40397e-11)
(-0.030854 0.0193749 -1.45921e-11)
(-0.0328162 0.0196559 -1.50473e-11)
(-0.0348055 0.019959 -1.56446e-11)
(-0.0368237 0.0202853 -1.6113e-11)
(-0.0388731 0.0206362 -1.67386e-11)
(-0.0409558 0.021013 -1.71976e-11)
(-0.0430742 0.0214174 -1.78235e-11)
(-0.0452308 0.0218512 -1.82395e-11)
(-0.0474281 0.0223162 -1.88219e-11)
(-0.0496689 0.0228147 -1.91485e-11)
(-0.051956 0.0233489 -1.96236e-11)
(-0.0542925 0.0239216 -1.97992e-11)
(-0.0566818 0.0245355 -2.008e-11)
(-0.0591271 0.0251941 -2.00274e-11)
(-0.0616322 0.0259007 -2.00007e-11)
(-0.064201 0.0266595 -1.96289e-11)
(-0.0668376 0.0274749 -1.91569e-11)
(-0.0695464 0.0283519 -1.83675e-11)
(-0.072332 0.029296 -1.72941e-11)
(-0.0751995 0.0303136 -1.59948e-11)
(-0.0781542 0.0314118 -1.41636e-11)
(-0.0812015 0.0325985 -1.22924e-11)
(-0.0843474 0.0338828 -9.58208e-12)
(-0.0875982 0.0352748 -7.14566e-12)
(-0.0909602 0.0367864 -3.52581e-12)
(-0.0944402 0.0384307 -6.45103e-13)
(-0.0980453 0.0402229 3.75622e-12)
(-0.101782 0.0421804 6.81884e-12)
(-0.105659 0.0443232 1.16714e-11)
(-0.10968 0.0466741 1.45434e-11)
(-0.113855 0.0492598 1.93142e-11)
(-0.118186 0.0521106 2.15604e-11)
(-0.122679 0.0552618 2.55423e-11)
(-0.127335 0.0587544 2.66475e-11)
(-0.132153 0.0626356 2.86036e-11)
(-0.137126 0.0669601 2.76711e-11)
(-0.142243 0.0717915 2.50889e-11)
(-0.147482 0.0772036 2.08956e-11)
(-0.152808 0.0832815 1.02448e-11)
(-0.158171 0.0901244 2.68184e-12)
(-0.163494 0.0978459 -1.57556e-11)
(-0.168667 0.106574 -2.36014e-11)
(-0.173532 0.116449 -3.83337e-11)
(-0.177873 0.127607 -4.05615e-11)
(-0.181402 0.14016 -3.46664e-11)
(-0.183752 0.154147 -2.61851e-11)
(-0.184502 0.169462 1.22914e-12)
(-0.18325 0.18577 1.70136e-11)
(-0.179717 0.202496 4.647e-11)
(-0.173853 0.218926 5.9461e-11)
(-0.165891 0.234383 7.38128e-11)
(-0.156234 0.248467 7.76224e-11)
(-0.145293 0.260994 7.62754e-11)
(-0.133434 0.271948 7.30214e-11)
(-0.120943 0.281418 6.50845e-11)
(-0.10803 0.289531 6.08254e-11)
(-0.0948411 0.296413 5.44264e-11)
(-0.0814753 0.302179 5.26676e-11)
(-0.0679986 0.306922 5.03662e-11)
(-0.0544539 0.310718 5.10274e-11)
(-0.0408676 0.313625 5.17655e-11)
(-0.0272578 0.31568 5.27332e-11)
(-0.0136442 0.316909 5.43665e-11)
(9.26812e-08 0.31732 5.38821e-11)
(0.0136444 0.316909 5.65569e-11)
(0.027258 0.315681 3.40458e-11)
(0.0408678 0.313625 9.92455e-11)
(0.0544541 0.310718 4.29207e-11)
(-0.00858404 0.0220822 -8.52958e-12)
(-0.0103136 0.0221771 -9.35363e-12)
(-0.0120503 0.0222898 -6.35122e-12)
(-0.0137952 0.0224206 -6.67304e-12)
(-0.0155495 0.02257 -6.83725e-12)
(-0.0173147 0.0227384 -7.03945e-12)
(-0.0190919 0.0229263 -7.30819e-12)
(-0.0208825 0.0231344 -7.54072e-12)
(-0.0226878 0.0233635 -7.86153e-12)
(-0.0245092 0.0236141 -8.1165e-12)
(-0.0263482 0.0238872 -8.47914e-12)
(-0.0282062 0.0241838 -8.758e-12)
(-0.0300847 0.0245049 -9.16391e-12)
(-0.0319853 0.0248516 -9.46284e-12)
(-0.0339096 0.0252252 -9.90738e-12)
(-0.0358594 0.0256271 -1.02174e-11)
(-0.0378363 0.0260589 -1.06899e-11)
(-0.0398422 0.0265221 -1.09969e-11)
(-0.0418789 0.0270188 -1.14779e-11)
(-0.0439485 0.0275509 -1.17604e-11)
(-0.046053 0.0281206 -1.22188e-11)
(-0.0481945 0.0287305 -1.24463e-11)
(-0.0503751 0.0293832 -1.28354e-11)
(-0.0525974 0.0300817 -1.29668e-11)
(-0.0548635 0.0308293 -1.32221e-11)
(-0.0571761 0.0316296 -1.32048e-11)
(-0.0595376 0.0324866 -1.32418e-11)
(-0.0619509 0.0334048 -1.30139e-11)
(-0.0644186 0.0343891 -1.27288e-11)
(-0.0669437 0.0354449 -1.2222e-11)
(-0.069529 0.0365782 -1.14974e-11)
(-0.0721775 0.0377959 -1.06456e-11)
(-0.0748921 0.0391053 -9.36278e-12)
(-0.077676 0.0405148 -8.11572e-12)
(-0.080532 0.0420338 -6.17858e-12)
(-0.083463 0.0436725 -4.52289e-12)
(-0.0864716 0.0454427 -1.89534e-12)
(-0.0895601 0.0473574 1.2222e-13)
(-0.0927305 0.0494312 3.37032e-12)
(-0.0959842 0.0516803 5.62722e-12)
(-0.0993216 0.0541232 9.28606e-12)
(-0.102742 0.0567802 1.15892e-11)
(-0.106244 0.0596744 1.52503e-11)
(-0.109824 0.0628313 1.74907e-11)
(-0.113474 0.0662795 2.08123e-11)
(-0.117187 0.0700507 2.27367e-11)
(-0.120948 0.0741801 2.5098e-11)
(-0.124739 0.0787063 2.66265e-11)
(-0.128535 0.0836714 2.73189e-11)
(-0.132303 0.0891213 2.82941e-11)
(-0.136 0.0951047 2.66447e-11)
(-0.13957 0.101673 2.71385e-11)
(-0.14294 0.108878 2.38207e-11)
(-0.14602 0.116771 2.4558e-11)
(-0.148693 0.125395 2.3144e-11)
(-0.150817 0.134782 2.54638e-11)
(-0.152221 0.144934 3.03617e-11)
(-0.152711 0.15581 3.50298e-11)
(-0.152082 0.167298 4.57446e-11)
(-0.150152 0.179202 5.11139e-11)
(-0.1468 0.191245 6.16405e-11)
(-0.142001 0.203104 6.47725e-11)
(-0.135839 0.214471 6.95858e-11)
(-0.128479 0.225115 6.90361e-11)
(-0.120114 0.234893 6.81591e-11)
(-0.110936 0.243731 6.53686e-11)
(-0.101116 0.251611 6.19827e-11)
(-0.0907953 0.258548 5.92656e-11)
(-0.0800894 0.264569 5.62736e-11)
(-0.0690883 0.269708 5.4857e-11)
(-0.0578631 0.274 5.34e-11)
(-0.0464696 0.277473 5.31954e-11)
(-0.0349521 0.280154 5.30869e-11)
(-0.0233484 0.28206 5.30514e-11)
(-0.0116966 0.283201 5.36098e-11)
(6.2732e-08 0.283583 5.22841e-11)
(0.0116968 0.283201 5.58662e-11)
(0.0233485 0.28206 2.68849e-11)
(0.0349523 0.280154 1.09159e-10)
(0.0464697 0.277473 3.03819e-11)
(-0.00833734 0.0266245 -1.17359e-11)
(-0.0100159 0.0267355 -9.52363e-12)
(-0.0117007 0.0268673 -6.97453e-12)
(-0.0133926 0.0270204 -6.9836e-12)
(-0.0150927 0.027195 -7.10965e-12)
(-0.0168021 0.0273919 -7.26769e-12)
(-0.018522 0.0276116 -7.50947e-12)
(-0.0202534 0.0278547 -7.73152e-12)
(-0.0219974 0.028122 -8.01636e-12)
(-0.0237553 0.0284145 -8.26486e-12)
(-0.0255281 0.0287329 -8.58293e-12)
(-0.0273172 0.0290785 -8.85443e-12)
(-0.0291237 0.0294522 -9.2069e-12)
(-0.0309488 0.0298555 -9.4966e-12)
(-0.032794 0.0302896 -9.87912e-12)
(-0.0346604 0.0307561 -1.01788e-11)
(-0.0365495 0.0312566 -1.05819e-11)
(-0.0384626 0.031793 -1.08789e-11)
(-0.0404012 0.0323672 -1.1286e-11)
(-0.0423666 0.0329815 -1.15613e-11)
(-0.0443604 0.0336382 -1.19461e-11)
(-0.046384 0.0343398 -1.21728e-11)
(-0.048439 0.0350894 -1.24968e-11)
(-0.0505269 0.0358899 -1.26391e-11)
(-0.0526492 0.0367448 -1.28502e-11)
(-0.0548074 0.0376578 -1.28632e-11)
(-0.0570032 0.038633 -1.28951e-11)
(-0.059238 0.0396748 -1.27268e-11)
(-0.0615134 0.0407883 -1.25012e-11)
(-0.0638306 0.0419788 -1.20961e-11)
(-0.066191 0.0432522 -1.15283e-11)
(-0.0685958 0.044615 -1.08346e-11)
(-0.0710459 0.0460744 -9.84426e-12)
(-0.0735423 0.0476383 -8.82475e-12)
(-0.0760852 0.0493152 -7.35419e-12)
(-0.0786748 0.0511147 -6.00083e-12)
(-0.0813107 0.0530471 -4.03959e-12)
(-0.0839919 0.055124 -2.38913e-12)
(-0.0867166 0.0573578 -2.01623e-15)
(-0.0894821 0.0597623 1.85553e-12)
(-0.0922845 0.0623524 4.51055e-12)
(-0.0951185 0.0651446 6.44143e-12)
(-0.0979771 0.0681566 9.11904e-12)
(-0.100851 0.0714074 1.09869e-11)
(-0.103729 0.0749179 1.34066e-11)
(-0.106595 0.0787098 1.51093e-11)
(-0.109432 0.0828065 1.70445e-11)
(-0.112217 0.0872322 1.8574e-11)
(-0.114921 0.0920117 1.99085e-11)
(-0.117511 0.0971698 2.13161e-11)
(-0.119946 0.102731 2.21593e-11)
(-0.122176 0.108716 2.35752e-11)
(-0.124144 0.115145 2.44812e-11)
(-0.125781 0.122031 2.61333e-11)
(-0.127008 0.129375 2.81802e-11)
(-0.127737 0.13717 3.03111e-11)
(-0.12787 0.145388 3.43244e-11)
(-0.127303 0.153974 3.68676e-11)
(-0.12594 0.162847 4.21239e-11)
(-0.123695 0.171887 4.43677e-11)
(-0.120517 0.180947 4.87605e-11)
(-0.116393 0.189866 4.97917e-11)
(-0.111357 0.198487 5.17186e-11)
(-0.10548 0.206675 5.13411e-11)
(-0.0988506 0.214331 5.0951e-11)
(-0.0915684 0.221384 4.98558e-11)
(-0.08373 0.22779 4.83627e-11)
(-0.0754249 0.233526 4.73968e-11)
(-0.0667333 0.238581 4.59122e-11)
(-0.0577253 0.242951 4.54596e-11)
(-0.0484622 0.24664 4.44935e-11)
(-0.0389974 0.249652 4.44688e-11)
(-0.0293777 0.25199 4.39119e-11)
(-0.0196465 0.25366 4.38341e-11)
(-0.00984755 0.254663 4.33863e-11)
(4.76183e-08 0.254998 4.24889e-11)
(0.00984765 0.254663 4.45619e-11)
(0.0196466 0.25366 1.92118e-11)
(0.0293778 0.251991 9.3092e-11)
(0.0389975 0.249652 1.99789e-11)
(-0.00805295 0.031021 -3.59848e-12)
(-0.00967287 0.0311458 -4.41412e-12)
(-0.0112979 0.0312939 -2.93879e-12)
(-0.012929 0.0314658 -3.17586e-12)
(-0.0145668 0.031662 -3.28397e-12)
(-0.0162125 0.031883 -3.40147e-12)
(-0.0178668 0.0321294 -3.55159e-12)
(-0.0195306 0.032402 -3.67611e-12)
(-0.0212048 0.0327016 -3.85678e-12)
(-0.0228904 0.0330291 -3.99388e-12)
(-0.0245882 0.0333854 -4.20198e-12)
(-0.0262993 0.0337717 -4.35399e-12)
(-0.0280244 0.034189 -4.59063e-12)
(-0.0297647 0.0346388 -4.75664e-12)
(-0.0315209 0.0351225 -5.02025e-12)
(-0.0332941 0.0356416 -5.19727e-12)
(-0.0350853 0.0361978 -5.48337e-12)
(-0.0368952 0.0367929 -5.6659e-12)
(-0.038725 0.0374291 -5.96521e-12)
(-0.0405755 0.0381084 -6.14388e-12)
(-0.0424476 0.0388332 -6.44021e-12)
(-0.0443422 0.0396062 -6.6005e-12)
(-0.0462602 0.0404302 -6.86888e-12)
(-0.0482024 0.0413081 -6.9902e-12)
(-0.0501695 0.0422434 -7.1955e-12)
(-0.0521623 0.0432395 -7.25097e-12)
(-0.0541812 0.0443006 -7.34733e-12)
(-0.0562269 0.0454307 -7.30443e-12)
(-0.0582995 0.0466345 -7.23652e-12)
(-0.0603994 0.047917 -7.0591e-12)
(-0.0625265 0.0492837 -6.7656e-12)
(-0.0646804 0.0507404 -6.4176e-12)
(-0.0668606 0.0522935 -5.8382e-12)
(-0.0690661 0.05395 -5.28944e-12)
(-0.0712956 0.0557172 -4.37605e-12)
(-0.0735471 0.0576033 -3.61e-12)
(-0.0758181 0.059617 -2.34213e-12)
(-0.0781053 0.0617676 -1.36593e-12)
(-0.0804046 0.0640651 2.28503e-13)
(-0.0827108 0.0665203 1.39214e-12)
(-0.0850175 0.0691445 3.24715e-12)
(-0.0873169 0.0719499 4.53338e-12)
(-0.0895996 0.0749489 6.53057e-12)
(-0.0918543 0.078155 7.92544e-12)
(-0.0940673 0.0815815 9.79162e-12)
(-0.0962228 0.0852423 1.10993e-11)
(-0.0983017 0.0891512 1.28499e-11)
(-0.100282 0.0933214 1.41643e-11)
(-0.102138 0.0977654 1.56994e-11)
(-0.103839 0.102494 1.70068e-11)
(-0.105353 0.107517 1.83975e-11)
(-0.106639 0.112839 1.97189e-11)
(-0.107656 0.118462 2.11797e-11)
(-0.108356 0.124382 2.25207e-11)
(-0.108685 0.130586 2.43194e-11)
(-0.108591 0.137055 2.56259e-11)
(-0.108015 0.143755 2.78175e-11)
(-0.106904 0.150641 2.8916e-11)
(-0.105206 0.157653 3.10899e-11)
(-0.102884 0.164718 3.16893e-11)
(-0.0999117 0.171749 3.3158e-11)
(-0.0962852 0.178656 3.30414e-11)
(-0.0920196 0.185349 3.34077e-11)
(-0.0871479 0.191747 3.26745e-11)
(-0.0817156 0.197782 3.21282e-11)
(-0.0757757 0.203399 3.11564e-11)
(-0.0693844 0.208554 3.02214e-11)
(-0.0625981 0.213217 2.93846e-11)
(-0.0554712 0.217365 2.85105e-11)
(-0.0480552 0.220981 2.79589e-11)
(-0.0403986 0.224055 2.73088e-11)
(-0.0325465 0.226579 2.69546e-11)
(-0.024541 0.228549 2.63675e-11)
(-0.016423 0.22996 2.5823e-11)
(-0.00823439 0.230809 2.51812e-11)
(3.66088e-08 0.231092 2.42238e-11)
(0.00823447 0.230809 2.46515e-11)
(0.0164231 0.22996 1.21117e-11)
(0.0245411 0.228549 4.65405e-11)
(0.0325465 0.226579 2.24008e-11)
(-0.00773795 0.0352528 -6.54111e-12)
(-0.009293 0.0353888 -4.82157e-12)
(-0.0108521 0.0355502 -3.63705e-12)
(-0.012416 0.0357375 -3.60419e-12)
(-0.0139854 0.0359511 -3.67861e-12)
(-0.0155608 0.0361917 -3.75684e-12)
(-0.0171431 0.0364598 -3.88814e-12)
(-0.0187329 0.0367561 -4.00521e-12)
(-0.0203308 0.0370815 -4.16076e-12)
(-0.0219375 0.0374369 -4.29548e-12)
(-0.0235538 0.0378233 -4.4718e-12)
(-0.0251801 0.0382417 -4.62203e-12)
(-0.0268173 0.0386933 -4.82021e-12)
(-0.0284659 0.0391794 -4.9838e-12)
(-0.0301265 0.0397014 -5.20221e-12)
(-0.0317997 0.0402609 -5.37587e-12)
(-0.0334861 0.0408594 -5.61029e-12)
(-0.0351863 0.0414988 -5.78854e-12)
(-0.0369007 0.0421811 -6.03078e-12)
(-0.0386298 0.0429083 -6.20461e-12)
(-0.0403741 0.0436827 -6.44092e-12)
(-0.0421337 0.0445067 -6.59667e-12)
(-0.0439092 0.045383 -6.80638e-12)
(-0.0457005 0.0463145 -6.92516e-12)
(-0.0475078 0.0473042 -7.07989e-12)
(-0.0493311 0.0483553 -7.13742e-12)
(-0.0511702 0.0494716 -7.20106e-12)
(-0.0530246 0.0506567 -7.16841e-12)
(-0.054894 0.0519148 -7.09832e-12)
(-0.0567774 0.0532503 -6.94369e-12)
(-0.0586739 0.0546678 -6.69368e-12)
(-0.0605821 0.0561724 -6.38554e-12)
(-0.0625002 0.0577696 -5.91116e-12)
(-0.0644262 0.0594649 -5.42264e-12)
(-0.0663573 0.0612645 -4.68875e-12)
(-0.0682905 0.0631749 -4.00334e-12)
(-0.070222 0.0652028 -2.99375e-12)
(-0.0721471 0.0673554 -2.11116e-12)
(-0.0740604 0.0696402 -8.38524e-13)
(-0.0759557 0.072065 2.21865e-13)
(-0.0778256 0.0746378 1.71074e-12)
(-0.0796613 0.0773668 2.90878e-12)
(-0.0814528 0.0802604 4.53413e-12)
(-0.0831887 0.0833268 5.82012e-12)
(-0.0848556 0.0865741 7.47708e-12)
(-0.0864385 0.0900098 8.78907e-12)
(-0.0879202 0.0936411 1.03986e-11)
(-0.0892814 0.0974739 1.17034e-11)
(-0.0905005 0.101513 1.3217e-11)
(-0.0915535 0.105761 1.44895e-11)
(-0.0924141 0.110219 1.59199e-11)
(-0.0930536 0.114883 1.71444e-11)
(-0.0934411 0.119749 1.85502e-11)
(-0.0935442 0.124804 1.97012e-11)
(-0.093329 0.130035 2.11267e-11)
(-0.0927616 0.135418 2.21469e-11)
(-0.0918089 0.140925 2.3531e-11)
(-0.0904402 0.146522 2.43215e-11)
(-0.0886294 0.152164 2.54587e-11)
(-0.0863565 0.157802 2.59056e-11)
(-0.0836104 0.163384 2.65521e-11)
(-0.0803895 0.168852 2.6604e-11)
(-0.0767024 0.17415 2.66647e-11)
(-0.0725671 0.179225 2.63995e-11)
(-0.0680091 0.184031 2.60061e-11)
(-0.0630593 0.188526 2.56002e-11)
(-0.0577525 0.192674 2.50119e-11)
(-0.0521254 0.196447 2.46338e-11)
(-0.0462154 0.199822 2.40775e-11)
(-0.0400602 0.202779 2.37961e-11)
(-0.0336968 0.205303 2.33576e-11)
(-0.0271615 0.207384 2.31231e-11)
(-0.0204896 0.209013 2.26329e-11)
(-0.0137163 0.210182 2.22565e-11)
(-0.00687804 0.210886 2.14904e-11)
(2.63176e-08 0.211122 2.06786e-11)
(0.00687809 0.210886 2.21323e-11)
(0.0137163 0.210182 4.77956e-12)
(0.0204897 0.209013 5.60924e-11)
(0.0271616 0.207384 1.66772e-12)
(-0.00739861 0.0393055 -1.83031e-13)
(-0.00888393 0.0394502 -9.27303e-13)
(-0.0103723 0.0396219 -5.46527e-13)
(-0.0118642 0.039821 -7.04444e-13)
(-0.0133602 0.040048 -7.68395e-13)
(-0.0148606 0.0403035 -8.22241e-13)
(-0.0163661 0.040588 -8.87709e-13)
(-0.017877 0.0409024 -9.35346e-13)
(-0.0193939 0.0412472 -1.01604e-12)
(-0.0209171 0.0416235 -1.07056e-12)
(-0.0224471 0.0420322 -1.16799e-12)
(-0.0239842 0.0424742 -1.23233e-12)
(-0.0255289 0.0429508 -1.34777e-12)
(-0.0270815 0.0434631 -1.42302e-12)
(-0.0286423 0.0440125 -1.55697e-12)
(-0.0302116 0.0446005 -1.64364e-12)
(-0.0317895 0.0452285 -1.79534e-12)
(-0.0333764 0.0458982 -1.89288e-12)
(-0.0349723 0.0466115 -2.05909e-12)
(-0.0365773 0.0473703 -2.16502e-12)
(-0.0381913 0.0481767 -2.33879e-12)
(-0.0398143 0.0490328 -2.44788e-12)
(-0.041446 0.0499411 -2.6175e-12)
(-0.0430862 0.0509041 -2.72117e-12)
(-0.0447343 0.0519245 -2.86948e-12)
(-0.0463898 0.0530053 -2.95562e-12)
(-0.0480519 0.0541495 -3.05984e-12)
(-0.0497195 0.0553603 -3.11302e-12)
(-0.0513916 0.0566413 -3.14542e-12)
(-0.0530666 0.0579962 -3.14777e-12)
(-0.0547429 0.0594287 -3.07748e-12)
(-0.0564183 0.0609431 -3.01032e-12)
(-0.0580904 0.0625436 -2.80661e-12)
(-0.0597564 0.0642348 -2.65289e-12)
(-0.061413 0.0660213 -2.28993e-12)
(-0.0630562 0.067908 -2.03744e-12)
(-0.0646818 0.0698999 -1.50039e-12)
(-0.0662845 0.0720023 -1.14522e-12)
(-0.0678587 0.0742203 -4.36602e-13)
(-0.0693976 0.0765593 1.3169e-14)
(-0.0708937 0.0790244 8.70759e-13)
(-0.0723387 0.0816209 1.39783e-12)
(-0.0737229 0.0843537 2.35681e-12)
(-0.0750357 0.0872273 2.93104e-12)
(-0.0762653 0.0902458 3.9296e-12)
(-0.0773983 0.0934127 4.51277e-12)
(-0.0784205 0.0967305 5.48682e-12)
(-0.0793158 0.100201 6.04593e-12)
(-0.0800671 0.103823 6.94988e-12)
(-0.0806559 0.107596 7.45643e-12)
(-0.0810623 0.111516 8.26761e-12)
(-0.0812657 0.115577 8.69729e-12)
(-0.0812444 0.11977 9.41767e-12)
(-0.0809765 0.124083 9.74888e-12)
(-0.08044 0.1285 1.03819e-11)
(-0.0796138 0.133002 1.05905e-11)
(-0.0784778 0.137565 1.11104e-11)
(-0.0770146 0.142163 1.11702e-11)
(-0.0752099 0.146764 1.15142e-11)
(-0.0730533 0.151335 1.14091e-11)
(-0.0705398 0.155837 1.15167e-11)
(-0.0676696 0.160235 1.12637e-11)
(-0.0644488 0.16449 1.11354e-11)
(-0.0608886 0.168566 1.07987e-11)
(-0.0570051 0.17243 1.05173e-11)
(-0.0528184 0.17605 1.01895e-11)
(-0.0483513 0.1794 9.88032e-12)
(-0.043629 0.182455 9.63867e-12)
(-0.0386783 0.185195 9.39357e-12)
(-0.0335269 0.187602 9.25564e-12)
(-0.028203 0.189663 9.05861e-12)
(-0.0227353 0.191365 8.95708e-12)
(-0.0171523 0.1927 8.65181e-12)
(-0.0114831 0.193659 8.38466e-12)
(-0.00575811 0.194237 7.88866e-12)
(1.98323e-08 0.19443 7.48849e-12)
(0.00575815 0.194237 7.14881e-12)
(0.0114831 0.193659 3.53954e-12)
(0.0171524 0.1927 1.3449e-11)
(0.0227353 0.191365 1.11591e-11)
(-0.00704109 0.0431677 -2.75118e-12)
(-0.0084531 0.0433186 -1.53955e-12)
(-0.00986717 0.0434976 -1.29637e-12)
(-0.0112836 0.0437051 -1.23836e-12)
(-0.0127027 0.0439416 -1.27322e-12)
(-0.0141249 0.0442075 -1.29516e-12)
(-0.0155502 0.0445035 -1.34635e-12)
(-0.0169792 0.0448302 -1.38808e-12)
(-0.0184119 0.0451883 -1.45034e-12)
(-0.0198486 0.0455787 -1.50282e-12)
(-0.0212896 0.0460022 -1.57712e-12)
(-0.0227349 0.0464598 -1.63995e-12)
(-0.0241847 0.0469526 -1.7278e-12)
(-0.0256391 0.0474816 -1.80128e-12)
(-0.0270982 0.0480481 -1.90302e-12)
(-0.028562 0.0486534 -1.98708e-12)
(-0.0300303 0.0492989 -2.10154e-12)
(-0.0315031 0.0499861 -2.19491e-12)
(-0.0329803 0.0507166 -2.31892e-12)
(-0.0344614 0.0514921 -2.41882e-12)
(-0.0359462 0.0523146 -2.54661e-12)
(-0.0374342 0.0531858 -2.64775e-12)
(-0.0389247 0.0541079 -2.76954e-12)
(-0.0404172 0.055083 -2.86342e-12)
(-0.0419107 0.0561136 -2.96537e-12)
(-0.0434043 0.0572019 -3.04055e-12)
(-0.0448967 0.0583506 -3.10483e-12)
(-0.0463865 0.0595625 -3.14716e-12)
(-0.0478721 0.0608402 -3.15266e-12)
(-0.0493516 0.0621868 -3.1461e-12)
(-0.050823 0.0636054 -3.06991e-12)
(-0.0522836 0.065099 -2.998e-12)
(-0.0537307 0.0666711 -2.81795e-12)
(-0.0551611 0.0683249 -2.66584e-12)