/*--------------------------------*- C++ -*----------------------------------*\
| =========                 |                                                 |
| \\      /  F ield         | OpenFOAM: The Open Source CFD Toolbox           |
|  \\    /   O peration     | Version:  2306                                  |
|   \\  /    A nd           | Website:  www.openfoam.com                      |
|    \\/     M anipulation  |                                                 |
\*---------------------------------------------------------------------------*/
FoamFile
{
    version     2.0;
    format      ascii;
    arch        "LSB;label=32;scalar=64";
    class       volScalarField;
    location    "37.5";
    object      p_rgh;
}
// * * * * * * * * * * * * * * * * * * * * * * * * * * * * * * * * * * * * * //

dimensions      [1 -1 -2 0 0 0 0];

internalField   nonuniform List<scalar> 
14400
(
0.00587107
0.00559747
0.00526044
0.00485252
0.00436299
0.00377035
0.00303764
0.00221125
0.00162398
0.000142274
-0.0124115
-0.0309841
-0.0526187
-0.0614274
-0.0583982
-0.0525316
-0.0475919
-0.0435726
-0.0400928
-0.0370292
-0.0343295
-0.0319459
-0.0298361
-0.0279644
-0.0263002
-0.0248169
-0.0234914
-0.0223039
-0.0212369
-0.0202755
-0.019407
-0.0186201
-0.0179053
-0.0172544
-0.0166602
-0.0161166
-0.0156181
-0.0151601
-0.0147386
-0.0143498
-0.0139908
-0.0136587
-0.0133512
-0.013066
-0.0128012
-0.0125552
-0.0123265
-0.0121137
-0.0119155
-0.0117309
-0.011559
-0.0113988
-0.0112496
-0.0111107
-0.0109813
-0.010861
-0.0107492
-0.0106454
-0.0105493
-0.0104603
-0.0103782
-0.0103026
-0.0102333
-0.01017
-0.0101125
-0.0100606
-0.010014
-0.00997265
-0.00993641
-0.00990515
-0.00987877
-0.00985721
-0.00984041
-0.00982834
-0.00982099
-0.00981852
-0.00982105
-0.00982845
-0.00984058
-0.00985745
0.00271854
0.00229161
0.00174295
0.00103997
0.000130322
-0.00107474
-0.0027137
-0.00496471
-0.00843664
-0.016521
-0.0340015
-0.0397775
-0.0413099
-0.0422277
-0.0417342
-0.0397832
-0.0373197
-0.0349025
-0.0326463
-0.0305661
-0.0286679
-0.0269475
-0.0253934
-0.0239912
-0.0227262
-0.021584
-0.0205515
-0.0196167
-0.0187689
-0.0179984
-0.017297
-0.016657
-0.016072
-0.0155362
-0.0150445
-0.0145925
-0.0141762
-0.0137922
-0.0134375
-0.0131093
-0.0128053
-0.0125232
-0.0122614
-0.012018
-0.0117915
-0.0115807
-0.0113843
-0.0112012
-0.0110305
-0.0108712
-0.0107227
-0.0105841
-0.0104549
-0.0103344
-0.0102221
-0.0101176
-0.0100204
-0.00993005
-0.00984629
-0.00976875
-0.00969715
-0.00963122
-0.00957072
-0.00951543
-0.00946515
-0.00941972
-0.00937898
-0.0093428
-0.00931105
-0.00928364
-0.00926047
-0.00924149
-0.00922662
-0.00921581
-0.009209
-0.0092066
-0.00920906
-0.00921593
-0.0092268
-0.00924174
-0.00412863
-0.00466575
-0.00532963
-0.00613342
-0.00709443
-0.00823964
-0.00961858
-0.0112832
-0.0131862
-0.0154255
-0.0187857
-0.0218447
-0.0243095
-0.0256309
-0.0258905
-0.0255611
-0.0249526
-0.0242048
-0.0233845
-0.0225332
-0.0216805
-0.0208454
-0.02004
-0.0192713
-0.0185429
-0.0178566
-0.0172125
-0.0166096
-0.0160465
-0.0155212
-0.0150317
-0.0145758
-0.0141512
-0.0137559
-0.0133878
-0.0130448
-0.0127252
-0.0124273
-0.0121494
-0.0118901
-0.011648
-0.0114218
-0.0112105
-0.011013
-0.0108283
-0.0106555
-0.0104938
-0.0103425
-0.0102009
-0.0100684
-0.00994438
-0.0098284
-0.00971996
-0.00961862
-0.00952398
-0.0094357
-0.00935342
-0.00927687
-0.00920575
-0.00913982
-0.00907885
-0.00902263
-0.00897097
-0.00892371
-0.00888069
-0.00884177
-0.00880682
-0.00877575
-0.00874845
-0.00872483
-0.00870483
-0.00868839
-0.00867544
-0.00866592
-0.00865974
-0.00865751
-0.00865981
-0.00866604
-0.00867563
-0.00868865
-0.00395865
-0.00431724
-0.00475774
-0.00528395
-0.005901
-0.00661633
-0.00744188
-0.00838832
-0.00943509
-0.0105457
-0.0117913
-0.0130728
-0.0142448
-0.0151551
-0.0157734
-0.0161505
-0.0163407
-0.0163814
-0.0163038
-0.0161362
-0.0159028
-0.015623
-0.0153124
-0.014983
-0.0146441
-0.0143027
-0.0139641
-0.0136321
-0.0133094
-0.0129978
-0.0126986
-0.0124124
-0.0121395
-0.01188
-0.0116337
-0.0114003
-0.0111795
-0.0109707
-0.0107734
-0.0105871
-0.0104114
-0.0102456
-0.0100892
-0.00994178
-0.00980285
-0.00967195
-0.00954866
-0.00943256
-0.00932329
-0.00922049
-0.00912382
-0.00903298
-0.00894767
-0.00886764
-0.00879263
-0.00872241
-0.00865676
-0.00859549
-0.00853842
-0.00848537
-0.00843619
-0.00839075
-0.0083489
-0.00831054
-0.00827555
-0.00824383
-0.00821531
-0.00818989
-0.00816751
-0.00814811
-0.00813164
-0.00811804
-0.00810728
-0.00809929
-0.008094
-0.00809204
-0.00809406
-0.00809942
-0.00810748
-0.00811832
0.000219368
-1.75094e-05
-0.000310984
-0.000663376
-0.00107799
-0.00155942
-0.00211389
-0.00274894
-0.00347063
-0.00428203
-0.00518344
-0.00612843
-0.00706417
-0.00793588
-0.00870456
-0.00935423
-0.00988535
-0.0103056
-0.0106259
-0.0108582
-0.0110149
-0.0111079
-0.0111479
-0.0111446
-0.0111065
-0.0110406
-0.0109533
-0.0108496
-0.0107338
-0.0106095
-0.0104796
-0.0103463
-0.0102117
-0.0100772
-0.00994392
-0.0098129
-0.0096848
-0.00956017
-0.00943938
-0.00932272
-0.00921035
-0.00910239
-0.00899889
-0.00889984
-0.00880521
-0.00871493
-0.00862894
-0.00854713
-0.00846939
-0.00839561
-0.00832568
-0.00825948
-0.0081969
-0.00813781
-0.0080821
-0.00802968
-0.00798042
-0.00793424
-0.00789103
-0.00785071
-0.0078132
-0.00777841
-0.00774627
-0.00771672
-0.00768968
-0.00766511
-0.00764294
-0.00762314
-0.00760565
-0.00759045
-0.00757748
-0.00756674
-0.00755818
-0.00755176
-0.00754741
-0.00754577
-0.00754748
-0.0075519
-0.0075584
-0.00756703
0.00279895
0.00258854
0.00232762
0.0020139
0.00164467
0.00121689
0.000727587
0.000174715
-0.000441573
-0.00111771
-0.00184463
-0.00260073
-0.00336053
-0.00409816
-0.00479226
-0.00542865
-0.00599957
-0.00650203
-0.00693642
-0.00730561
-0.00761409
-0.00786727
-0.00807095
-0.00823095
-0.00835286
-0.00844192
-0.00850291
-0.00854013
-0.0085574
-0.00855807
-0.00854505
-0.00852088
-0.00848772
-0.00844742
-0.00840155
-0.00835145
-0.00829825
-0.00824288
-0.00818612
-0.00812865
-0.00807099
-0.0080136
-0.00795684
-0.00790101
-0.00784635
-0.00779305
-0.00774127
-0.00769111
-0.00764267
-0.00759602
-0.0075512
-0.00750825
-0.00746718
-0.007428
-0.00739071
-0.00735531
-0.00732177
-0.00729009
-0.00726025
-0.00723222
-0.00720598
-0.00718151
-0.00715879
-0.00713779
-0.00711849
-0.00710087
-0.00708491
-0.00707059
-0.00705789
-0.00704678
-0.00703727
-0.00702933
-0.00702295
-0.00701809
-0.0070147
-0.00701339
-0.00701477
-0.00701824
-0.00702318
-0.00702964
0.00423546
0.00404373
0.00380813
0.00352738
0.00320025
0.00282567
0.00240312
0.00193304
0.00141754
0.000860938
0.00027042
-0.000343028
-0.000966168
-0.00158516
-0.00218732
-0.00276233
-0.00330246
-0.00380254
-0.00425965
-0.00467271
-0.00504211
-0.00536931
-0.00565654
-0.00590651
-0.00612217
-0.00630663
-0.00646293
-0.00659405
-0.0067028
-0.00679181
-0.00686349
-0.00692006
-0.00696349
-0.00699558
-0.00701792
-0.00703192
-0.00703884
-0.00703976
-0.00703566
-0.00702737
-0.00701563
-0.00700107
-0.00698425
-0.00696565
-0.00694567
-0.00692469
-0.006903
-0.00688088
-0.00685853
-0.00683617
-0.00681395
-0.00679201
-0.00677048
-0.00674946
-0.00672902
-0.00670925
-0.0066902
-0.00667192
-0.00665446
-0.00663785
-0.00662212
-0.00660729
-0.00659337
-0.00658039
-0.00656836
-0.00655728
-0.00654716
-0.006538
-0.00652982
-0.0065226
-0.00651635
-0.00651108
-0.00650677
-0.0065034
-0.00650093
-0.00649994
-0.00650101
-0.00650356
-0.00650701
-0.0065114
0.00488515
0.00470805
0.00449294
0.00423946
0.00394746
0.00361715
0.00324927
0.00284535
0.00240797
0.00194101
0.00144979
0.000941111
0.000422802
-9.69592e-05
-0.000610323
-0.00111031
-0.0015911
-0.00204817
-0.00247824
-0.00287921
-0.00324999
-0.00359033
-0.00390065
-0.0041819
-0.00443539
-0.00466269
-0.00486554
-0.00504573
-0.00520509
-0.00534543
-0.00546848
-0.0055759
-0.00566924
-0.00574996
-0.00581939
-0.00587877
-0.00592923
-0.00597178
-0.00600735
-0.00603677
-0.00606079
-0.00608009
-0.00609527
-0.00610686
-0.00611534
-0.00612114
-0.00612463
-0.00612616
-0.00612602
-0.00612448
-0.00612176
-0.00611808
-0.00611362
-0.00610855
-0.00610299
-0.00609708
-0.00609093
-0.00608464
-0.00607829
-0.00607196
-0.00606571
-0.00605961
-0.00605369
-0.00604801
-0.0060426
-0.00603749
-0.00603272
-0.00602831
-0.00602428
-0.00602063
-0.0060174
-0.00601459
-0.00601221
-0.00601022
-0.00600861
-0.00600792
-0.00600869
-0.00601039
-0.00601245
-0.00601492
0.00509234
0.0049331
0.00474157
0.00451796
0.00426272
0.00397663
0.00366091
0.00331732
0.00294823
0.00255676
0.00214673
0.00172265
0.0012895
0.000852443
0.000416581
-1.33516e-05
-0.000433147
-0.000839237
-0.00122875
-0.00159948
-0.00194989
-0.00227901
-0.00258638
-0.00287198
-0.00313612
-0.00337939
-0.00360259
-0.00380666
-0.00399266
-0.00416171
-0.00431492
-0.00445345
-0.00457841
-0.00469089
-0.00479191
-0.00488248
-0.0049635
-0.00503585
-0.00510033
-0.0051577
-0.00520863
-0.00525375
-0.00529365
-0.00532885
-0.00535984
-0.00538704
-0.00541086
-0.00543165
-0.00544974
-0.00546543
-0.00547898
-0.00549063
-0.0055006
-0.00550908
-0.00551624
-0.00552224
-0.00552724
-0.00553134
-0.00553466
-0.00553732
-0.00553939
-0.00554096
-0.0055421
-0.00554288
-0.00554335
-0.00554356
-0.00554356
-0.00554339
-0.00554307
-0.00554263
-0.00554211
-0.00554151
-0.00554086
-0.00554013
-0.00553931
-0.0055389
-0.00553939
-0.0055403
-0.00554112
-0.00554186
0.00502406
0.00488345
0.00471558
0.00452096
0.0043003
0.00405459
0.00378512
0.00349353
0.00318187
0.00285255
0.00250841
0.00215261
0.00178853
0.00141968
0.00104952
0.000681382
0.000318309
-3.69852e-05
-0.00038217
-0.000715322
-0.00103492
-0.00133983
-0.00162926
-0.00190276
-0.00216014
-0.00240143
-0.00262688
-0.00283688
-0.00303196
-0.00321271
-0.00337982
-0.00353399
-0.00367596
-0.00380648
-0.00392629
-0.00403612
-0.00413666
-0.0042286
-0.00431259
-0.00438924
-0.00445912
-0.00452278
-0.00458072
-0.00463343
-0.00468133
-0.00472483
-0.00476431
-0.00480012
-0.00483257
-0.00486195
-0.00488854
-0.00491258
-0.0049343
-0.00495389
-0.00497155
-0.00498745
-0.00500174
-0.00501456
-0.00502605
-0.00503631
-0.00504546
-0.00505359
-0.00506078
-0.00506711
-0.00507265
-0.00507746
-0.0050816
-0.0050851
-0.00508802
-0.00509038
-0.00509223
-0.00509357
-0.00509444
-0.00509482
-0.00509469
-0.00509453
-0.00509478
-0.005095
-0.00509471
-0.00509393
0.00480449
0.00468242
0.00453747
0.00437023
0.00418147
0.00397217
0.00374351
0.00349691
0.00323404
0.0029568
0.00266728
0.00236779
0.00206073
0.00174859
0.00143384
0.00111887
0.000805918
0.000497062
0.000194144
-0.000101234
-0.000387721
-0.000664218
-0.000929865
-0.00118403
-0.00142629
-0.00165639
-0.00187426
-0.00207996
-0.00227365
-0.00245561
-0.00262617
-0.00278575
-0.00293478
-0.00307373
-0.00320311
-0.00332342
-0.00343516
-0.00353883
-0.00363492
-0.0037239
-0.00380625
-0.00388239
-0.00395275
-0.00401773
-0.0040777
-0.00413301
-0.00418401
-0.00423099
-0.00427426
-0.00431408
-0.00435071
-0.00438438
-0.0044153
-0.00444368
-0.0044697
-0.00449353
-0.00451532
-0.00453523
-0.00455338
-0.00456989
-0.00458487
-0.00459843
-0.00461065
-0.00462161
-0.0046314
-0.00464007
-0.00464768
-0.0046543
-0.00465996
-0.0046647
-0.00466855
-0.00467156
-0.00467373
-0.00467506
-0.00467553
-0.00467559
-0.00467563
-0.00467524
-0.00467401
-0.00467193
0.004505
0.00440012
0.00427604
0.00413333
0.00397274
0.00379512
0.00360152
0.0033931
0.00317121
0.00293733
0.00269305
0.0024401
0.00218025
0.00191532
0.00164713
0.00137746
0.00110799
0.000840324
0.000575906
0.000316046
6.18917e-05
-0.000185575
-0.000425535
-0.000657326
-0.000880438
-0.0010945
-0.00129926
-0.00149459
-0.00168045
-0.0018569
-0.00202406
-0.00218211
-0.00233129
-0.00247187
-0.00260414
-0.00272845
-0.00284512
-0.00295449
-0.00305694
-0.00315279
-0.0032424
-0.00332612
-0.00340426
-0.00347715
-0.0035451
-0.0036084
-0.00366732
-0.00372215
-0.00377313
-0.00382049
-0.00386446
-0.00390526
-0.00394308
-0.0039781
-0.0040105
-0.00404043
-0.00406804
-0.00409348
-0.00411687
-0.00413832
-0.00415794
-0.00417584
-0.0041921
-0.0042068
-0.00422003
-0.00423184
-0.0042423
-0.00425146
-0.00425937
-0.00426606
-0.00427158
-0.00427596
-0.00427921
-0.00428133
-0.00428232
-0.00428256
-0.00428242
-0.00428152
-0.0042795
-0.00427634
0.00417047
0.00408095
0.00397529
0.00385403
0.0037178
0.00356735
0.00340355
0.00322734
0.0030398
0.00284209
0.00263545
0.00242117
0.00220061
0.00197514
0.00174614
0.00151493
0.00128284
0.00105109
0.000820834
0.000593139
0.000368959
0.000149143
-6.55723e-05
-0.000274561
-0.000477303
-0.000673383
-0.000862479
-0.00104436
-0.00121888
-0.00138595
-0.00154556
-0.00169776
-0.00184262
-0.00198028
-0.0021109
-0.00223467
-0.0023518
-0.0024625
-0.00256702
-0.00266561
-0.00275851
-0.00284596
-0.00292822
-0.00300554
-0.00307815
-0.00314629
-0.00321018
-0.00327004
-0.00332608
-0.00337851
-0.00342751
-0.00347326
-0.00351594
-0.00355571
-0.00359271
-0.00362711
-0.00365902
-0.00368858
-0.0037159
-0.00374109
-0.00376425
-0.00378548
-0.00380485
-0.00382246
-0.00383836
-0.00385263
-0.00386533
-0.0038765
-0.00388619
-0.00389444
-0.00390128
-0.00390676
-0.00391088
-0.00391364
-0.00391505
-0.00391544
-0.00391515
-0.00391384
-0.00391117
-0.00390715
0.00382766
0.00375149
0.00366173
0.00355885
0.00344337
0.00331592
0.00317722
0.00302802
0.0028692
0.00270164
0.00252633
0.00234428
0.00215651
0.00196409
0.00176807
0.00156949
0.00136937
0.00116869
0.000968356
0.000769241
0.000572135
0.00037776
0.000186758
-3.03548e-07
-0.000182935
-0.000360724
-0.000533326
-0.000700469
-0.000861942
-0.00101759
-0.00116733
-0.0013111
-0.00144889
-0.00158073
-0.00170669
-0.00182685
-0.00194134
-0.00205027
-0.0021538
-0.00225208
-0.00234529
-0.00243359
-0.00251716
-0.00259619
-0.00267085
-0.00274131
-0.00280777
-0.00287038
-0.00292932
-0.00298475
-0.00303682
-0.00308568
-0.00313149
-0.00317437
-0.00321446
-0.00325188
-0.00328676
-0.00331919
-0.00334929
-0.00337714
-0.00340285
-0.0034265
-0.00344816
-0.0034679
-0.00348579
-0.0035019
-0.00351627
-0.00352895
-0.00353999
-0.00354942
-0.00355728
-0.0035636
-0.00356839
-0.00357166
-0.0035734
-0.00357391
-0.0035735
-0.00357186
-0.00356869
-0.003564
0.0034923
0.00342755
0.00335132
0.003264
0.00316604
0.00305794
0.00294028
0.00281369
0.00267884
0.00253645
0.00238728
0.00223213
0.0020718
0.00190713
0.00173893
0.00156802
0.00139522
0.00122128
0.00104696
0.000872961
0.000699936
0.000528493
0.000359187
0.000192518
2.89297e-05
-0.000131189
-0.000287502
-0.000439727
-0.00058763
-0.000731024
-0.000869766
-0.00100375
-0.00113291
-0.00125722
-0.00137666
-0.00149126
-0.00160106
-0.00170612
-0.00180652
-0.00190236
-0.00199373
-0.00208076
-0.00216355
-0.00224224
-0.00231694
-0.0023878
-0.00245494
-0.00251849
-0.00257859
-0.00263534
-0.0026889
-0.00273936
-0.00278685
-0.00283148
-0.00287337
-0.00291261
-0.0029493
-0.00298354
-0.00301541
-0.003045
-0.00307239
-0.00309766
-0.00312086
-0.00314207
-0.00316133
-0.00317872
-0.00319426
-0.00320802
-0.00322002
-0.0032303
-0.00323889
-0.00324582
-0.0032511
-0.00325474
-0.00325673
-0.00325734
-0.00325683
-0.00325494
-0.00325141
-0.00324623
0.00317319
0.0031181
0.0030533
0.00297908
0.00289583
0.00280395
0.0027039
0.0025962
0.00248137
0.00236
0.00223269
0.00210006
0.00196276
0.00182143
0.00167673
0.00152932
0.00137982
0.00122887
0.00107708
0.000925005
0.000773203
0.000622181
0.000472413
0.000324335
0.000178339
3.47818e-05
-0.000106024
-0.000243803
-0.000378319
-0.000509373
-0.000636799
-0.000760464
-0.000880267
-0.000996134
-0.00110801
-0.00121588
-0.00131973
-0.00141958
-0.00151545
-0.00160739
-0.00169545
-0.0017797
-0.00186021
-0.00193706
-0.00201033
-0.00208012
-0.00214651
-0.00220961
-0.0022695
-0.00232628
-0.00238005
-0.00243089
-0.00247891
-0.00252418
-0.0025668
-0.00260685
-0.0026444
-0.00267955
-0.00271236
-0.0027429
-0.00277123
-0.00279743
-0.00282154
-0.00284363
-0.00286374
-0.00288191
-0.0028982
-0.00291264
-0.00292526
-0.00293609
-0.00294517
-0.0029525
-0.00295812
-0.00296201
-0.00296419
-0.00296487
-0.00296429
-0.00296222
-0.00295843
-0.00295291
0.00287485
0.00282791
0.0027727
0.00270948
0.00263855
0.00256025
0.00247494
0.00238303
0.00228496
0.00218118
0.00207218
0.00195845
0.00184051
0.00171887
0.00159407
0.00146662
0.00133704
0.00120583
0.00107349
0.000940499
0.0008073
0.000674325
0.000541978
0.000410634
0.000280639
0.000152311
2.59346e-05
-9.82321e-05
-0.000219962
-0.000339056
-0.000455343
-0.000568678
-0.00067894
-0.000786031
-0.000889877
-0.000990422
-0.00108763
-0.00118147
-0.00127195
-0.00135907
-0.00144284
-0.00152331
-0.0016005
-0.00167446
-0.00174524
-0.00181289
-0.00187749
-0.00193908
-0.00199775
-0.00205354
-0.00210655
-0.00215682
-0.00220444
-0.00224947
-0.00229198
-0.00233202
-0.00236968
-0.002405
-0.00243805
-0.00246888
-0.00249754
-0.0025241
-0.00254859
-0.00257107
-0.00259157
-0.00261013
-0.00262678
-0.00264157
-0.00265452
-0.00266565
-0.00267499
-0.00268256
-0.00268837
-0.00269242
-0.00269471
-0.00269544
-0.00269481
-0.00269263
-0.00268868
-0.00268297
0.00259919
0.00255909
0.00251194
0.00245794
0.00239733
0.00233039
0.00225742
0.00217874
0.00209471
0.00200569
0.00191207
0.00181425
0.00171264
0.00160766
0.00149973
0.00138928
0.00127672
0.00116248
0.00104694
0.000930513
0.000813568
0.000696468
0.000579556
0.000463154
0.000347564
0.000233066
0.000119917
8.35247e-06
-0.000101416
-0.000209199
-0.000314826
-0.000418151
-0.000519045
-0.000617401
-0.000713128
-0.000806151
-0.000896413
-0.00098387
-0.00106849
-0.00115026
-0.00122917
-0.00130521
-0.00137841
-0.00144878
-0.00151634
-0.00158113
-0.00164317
-0.00170252
-0.0017592
-0.00181328
-0.00186479
-0.00191377
-0.0019603
-0.0020044
-0.00204613
-0.00208554
-0.00212267
-0.00215758
-0.00219032
-0.00222091
-0.00224941
-0.00227586
-0.0023003
-0.00232276
-0.00234327
-0.00236187
-0.00237859
-0.00239345
-0.00240648
-0.0024177
-0.00242713
-0.00243478
-0.00244066
-0.00244479
-0.00244714
-0.0024479
-0.00244724
-0.00244499
-0.00244097
-0.00243519
0.00234651
0.00231217
0.00227177
0.0022255
0.00217356
0.00211615
0.00205353
0.00198596
0.00191373
0.00183712
0.00175646
0.00167206
0.00158426
0.00149341
0.00139983
0.00130388
0.0012059
0.00110623
0.00100521
0.000903158
0.000800393
0.000697219
0.000593929
0.000490798
0.000388089
0.000286048
0.000184902
8.48645e-05
-1.38715e-05
-0.000111128
-0.000206745
-0.000300578
-0.000392501
-0.000482399
-0.000570177
-0.000655751
-0.000739051
-0.000820018
-0.000898608
-0.000974783
-0.00104852
-0.0011198
-0.00118861
-0.00125496
-0.00131884
-0.00138027
-0.00143927
-0.00149585
-0.00155004
-0.00160186
-0.00165134
-0.00169852
-0.00174342
-0.00178608
-0.00182654
-0.00186483
-0.00190097
-0.00193502
-0.001967
-0.00199695
-0.00202489
-0.00205086
-0.00207489
-0.00209701
-0.00211724
-0.00213561
-0.00215214
-0.00216685
-0.00217976
-0.00219089
-0.00220025
-0.00220786
-0.00221373
-0.00221785
-0.00222022
-0.002221
-0.00222032
-0.00221805
-0.00221403
-0.00220827
0.00211619
0.00208668
0.00205197
0.0020122
0.00196753
0.00191814
0.00186423
0.00180601
0.00174372
0.00167759
0.00160787
0.00153484
0.00145876
0.00137991
0.00129857
0.00121502
0.00112955
0.00104243
0.00095395
0.000864375
0.000773971
0.000682996
0.000591699
0.000500316
0.000409075
0.00031819
0.000227863
0.000138282
4.96241e-05
-3.79485e-05
-0.000124286
-0.000209254
-0.000292726
-0.000374594
-0.000454757
-0.000533129
-0.000609633
-0.000684205
-0.000756787
-0.000827334
-0.000895808
-0.000962178
-0.00102642
-0.00108852
-0.00114847
-0.00120627
-0.0012619
-0.00131539
-0.00136673
-0.00141595
-0.00146304
-0.00150804
-0.00155096
-0.00159181
-0.00163063
-0.00166744
-0.00170225
-0.0017351
-0.001766
-0.00179498
-0.00182206
-0.00184727
-0.00187062
-0.00189214
-0.00191185
-0.00192977
-0.00194591
-0.00196029
-0.00197292
-0.00198382
-0.001993
-0.00200047
-0.00200624
-0.0020103
-0.00201266
-0.00201344
-0.00201276
-0.0020105
-0.00200654
-0.00200087
0.00190707
0.00188163
0.00185171
0.00181741
0.00177888
0.00173625
0.00168969
0.00163937
0.00158548
0.00152822
0.00146779
0.0014044
0.00133829
0.00126968
0.0011988
0.00112588
0.00105116
0.000974868
0.000897238
0.000818499
0.000738873
0.000658578
0.000577827
0.000496823
0.000415762
0.000334831
0.000254208
0.00017406
9.45446e-05
1.58102e-05
-6.20066e-05
-0.000138779
-0.00021439
-0.000288733
-0.000361712
-0.000433239
-0.000503236
-0.000571634
-0.000638372
-0.000703398
-0.000766665
-0.000828135
-0.000887776
-0.000945562
-0.00100147
-0.00105549
-0.00110761
-0.00115782
-0.00120612
-0.00125251
-0.00129699
-0.00133957
-0.00138026
-0.00141906
-0.00145599
-0.00149107
-0.0015243
-0.00155569
-0.00158528
-0.00161306
-0.00163906
-0.00166329
-0.00168576
-0.0017065
-0.00172551
-0.00174281
-0.0017584
-0.00177231
-0.00178454
-0.00179511
-0.00180401
-0.00181126
-0.00181687
-0.00182083
-0.00182314
-0.00182391
-0.00182324
-0.00182103
-0.00181717
-0.00181166
0.00171773
0.00169573
0.00166985
0.00164018
0.00160684
0.00156992
0.00152959
0.00148596
0.0014392
0.00138947
0.00133693
0.00128177
0.00122417
0.00116432
0.00110241
0.00103862
0.00097316
0.000906221
0.000837996
0.000768677
0.000698454
0.000627511
0.000556029
0.000484184
0.000412145
0.000340074
0.000268127
0.000196453
0.000125192
5.44779e-05
-1.55658e-05
-8.48219e-05
-0.000153182
-0.000220546
-0.000286821
-0.000351922
-0.000415773
-0.000478303
-0.000539449
-0.000599156
-0.000657373
-0.000714057
-0.000769171
-0.000822681
-0.000874559
-0.000924783
-0.000973334
-0.0010202
-0.00106536
-0.00110882
-0.00115056
-0.00119059
-0.0012289
-0.0012655
-0.00130038
-0.00133357
-0.00136505
-0.00139484
-0.00142294
-0.00144937
-0.00147412
-0.00149722
-0.00151868
-0.00153849
-0.00155667
-0.00157322
-0.00158816
-0.0016015
-0.00161324
-0.00162338
-0.00163194
-0.00163892
-0.00164432
-0.00164814
-0.00165038
-0.00165113
-0.00165048
-0.00164833
-0.00164461
-0.0016393
0.00154663
0.00152755
0.0015051
0.00147936
0.00145041
0.00141835
0.0013833
0.00134536
0.00130467
0.00126136
0.00121556
0.00116743
0.00111712
0.00106478
0.00101057
0.000954657
0.000897196
0.000838354
0.000778293
0.000717176
0.000655164
0.000592413
0.000529079
0.000465313
0.000401261
0.000337064
0.000272859
0.000208777
0.000144944
8.14766e-05
1.84891e-05
-4.39127e-05
-0.000105629
-0.000166566
-0.000226637
-0.000285762
-0.000343865
-0.000400879
-0.00045674
-0.000511393
-0.000564784
-0.000616869
-0.000667606
-0.000716957
-0.000764891
-0.00081138
-0.000856398
-0.000899926
-0.000941947
-0.000982444
-0.00102141
-0.00105883
-0.0010947
-0.00112901
-0.00116177
-0.00119297
-0.0012226
-0.00125068
-0.0012772
-0.00130217
-0.00132559
-0.00134746
-0.00136779
-0.00138658
-0.00140384
-0.00141957
-0.00143378
-0.00144648
-0.00145765
-0.00146732
-0.00147549
-0.00148215
-0.00148731
-0.00149096
-0.00149312
-0.00149384
-0.00149321
-0.00149115
-0.00148759
-0.00148252
0.00139223
0.00137563
0.0013561
0.0013337
0.0013085
0.00128058
0.00125003
0.00121695
0.00118144
0.00114362
0.0011036
0.0010615
0.00101744
0.000971567
0.000924003
0.000874883
0.000824346
0.000772529
0.000719569
0.000665605
0.000610771
0.000555204
0.000499036
0.000442397
0.000385413
0.000328208
0.000270902
0.00021361
0.000156442
9.95054e-05
4.29003e-05
-1.32766e-05
-6.89342e-05
-0.000123986
-0.000178352
-0.000231956
-0.000284727
-0.0003366
-0.000387513
-0.000437411
-0.000486242
-0.000533959
-0.000580519
-0.000625883
-0.000670016
-0.000712888
-0.000754469
-0.000794735
-0.000833665
-0.00087124
-0.000907443
-0.000942261
-0.000975681
-0.00100769
-0.00103829
-0.00106747
-0.00109522
-0.00112154
-0.00114643
-0.00116988
-0.0011919
-0.00121249
-0.00123164
-0.00124936
-0.00126564
-0.0012805
-0.00129393
-0.00130593
-0.0013165
-0.00132566
-0.00133339
-0.0013397
-0.0013446
-0.00134808
-0.00135013
-0.00135082
-0.00135022
-0.00134826
-0.00134487
-0.00134007
0.00125304
0.00123856
0.00122152
0.00120197
0.00117997
0.00115559
0.00112889
0.00109997
0.00106891
0.0010358
0.00100073
0.00096382
0.000925161
0.000884865
0.000843044
0.000799811
0.000755282
0.000709574
0.000662802
0.000615084
0.000566537
0.000517276
0.000467414
0.000417065
0.000366337
0.000315339
0.000264176
0.000212948
0.000161754
0.000110688
5.98415e-05
9.30033e-06
-4.08524e-05
-9.05381e-05
-0.000139682
-0.000188214
-0.000236067
-0.00028318
-0.000329494
-0.000374955
-0.000419512
-0.00046312
-0.000505734
-0.000547316
-0.000587829
-0.000627241
-0.00066552
-0.000702641
-0.000738578
-0.00077331
-0.000806818
-0.000839084
-0.000870093
-0.000899831
-0.000928287
-0.000955452
-0.000981316
-0.00100587
-0.00102911
-0.00105104
-0.00107164
-0.00109091
-0.00110886
-0.00112548
-0.00114076
-0.00115471
-0.00116733
-0.00117862
-0.00118857
-0.00119718
-0.00120447
-0.00121042
-0.00121504
-0.00121832
-0.00122027
-0.00122093
-0.00122035
-0.0012185
-0.0012153
-0.00121077
0.00112764
0.00111498
0.00110008
0.00108297
0.00106372
0.00104237
0.00101898
0.000993635
0.000966396
0.000937341
0.000906552
0.000874114
0.000840116
0.000804648
0.000767806
0.000729685
0.000690383
0.000649997
0.000608629
0.000566378
0.000523343
0.000479623
0.000435317
0.000390523
0.000345335
0.000299847
0.000254151
0.000208336
0.00016249
0.000116695
7.10335e-05
2.55828e-05
-1.9582e-05
-6.43894e-05
-0.000108771
-0.000152662
-0.000196001
-0.000238729
-0.000280792
-0.000322138
-0.000362718
-0.000402488
-0.000441405
-0.000479429
-0.000516525
-0.000552659
-0.0005878
-0.00062192
-0.000654993
-0.000686995
-0.000717904
-0.000747702
-0.00077637
-0.000803893
-0.000830257
-0.000855449
-0.000879458
-0.000902274
-0.000923888
-0.000944294
-0.000963483
-0.000981451
-0.000998193
-0.0010137
-0.00102798
-0.00104102
-0.00105282
-0.00106338
-0.0010727
-0.00108077
-0.0010876
-0.00109318
-0.00109751
-0.0011006
-0.00110243
-0.00110306
-0.00110252
-0.00110077
-0.00109777
-0.00109351
0.00101473
0.00100363
0.000990558
0.000975555
0.000958661
0.000939923
0.000919392
0.000897127
0.000873186
0.000847635
0.000820542
0.000791979
0.000762021
0.000730745
0.000698231
0.000664559
0.000629813
0.000594078
0.000557437
0.000519977
0.000481783
0.000442941
0.000403535
0.000363651
0.00032337
0.000282774
0.000241945
0.000200961
0.000159898
0.000118831
7.7833e-05
3.69727e-05
-3.68184e-06
-4.40658e-05
-8.41168e-05
-0.000123775
-0.000162985
-0.000201691
-0.000239842
-0.00027739
-0.000314289
-0.000350495
-0.000385968
-0.000420669
-0.000454563
-0.000487617
-0.000519799
-0.000551082
-0.000581437
-0.000610842
-0.000639272
-0.000666708
-0.000693131
-0.000718522
-0.000742866
-0.00076615
-0.000788359
-0.000809482
-0.000829509
-0.00084843
-0.000866236
-0.000882921
-0.000898477
-0.000912899
-0.000926182
-0.00093832
-0.000949311
-0.00095915
-0.000967835
-0.000975364
-0.000981734
-0.000986945
-0.000990994
-0.000993879
-0.000995598
-0.000996185
-0.000995678
-0.00099404
-0.000991235
-0.000987264
0.000913078
0.000903325
0.000891839
0.000878651
0.000863797
0.000847315
0.000829251
0.00080965
0.000788565
0.00076605
0.000742164
0.000716965
0.000690519
0.000662891
0.000634148
0.000604359
0.000573595
0.000541929
0.000509433
0.000476181
0.000442246
0.000407703
0.000372624
0.000337083
0.000301152
0.000264904
0.000228408
0.000191733
0.000154948
0.00011812
8.13108e-05
4.45849e-05
8.00256e-06
-2.83776e-05
-6.4499e-05
-0.000100307
-0.00013575
-0.000170778
-0.000205343
-0.0002394
-0.000272905
-0.000305818
-0.0003381
-0.000369713
-0.000400625
-0.000430802
-0.000460213
-0.000488831
-0.000516629
-0.000543582
-0.000569667
-0.000594863
-0.000619149
-0.000642509
-0.000664924
-0.000686379
-0.000706861
-0.000726356
-0.000744852
-0.000762339
-0.000778807
-0.000794247
-0.000808652
-0.000822013
-0.000834326
-0.000845584
-0.000855782
-0.000864916
-0.000872982
-0.000879977
-0.000885898
-0.000890744
-0.000894512
-0.000897199
-0.000898803
-0.000899353
-0.00089888
-0.000897353
-0.000894742
-0.00089105
0.000821586
0.000812998
0.000802883
0.000791267
0.000778179
0.000763653
0.000747726
0.000730439
0.000711834
0.000691958
0.00067086
0.000648592
0.000625207
0.000600761
0.000575312
0.00054892
0.000521644
0.000493548
0.000464693
0.000435142
0.00040496
0.00037421
0.000342956
0.000311262
0.000279192
0.000246807
0.00021417
0.000181342
0.000148383
0.000115351
8.2305e-05
4.92996e-05
1.63898e-05
-1.63716e-05
-4.89333e-05
-8.12458e-05
-0.000113262
-0.000144935
-0.000176221
-0.000207079
-0.000237467
-0.000267348
-0.000296685
-0.000325443
-0.000353589
-0.000381092
-0.000407923
-0.000434054
-0.000459458
-0.000484112
-0.000507993
-0.000531079
-0.000553349
-0.000574787
-0.000595373
-0.000615093
-0.000633931
-0.000651873
-0.000668908
-0.000685023
-0.000700209
-0.000714454
-0.000727751
-0.000740092
-0.00075147
-0.000761877
-0.000771309
-0.00077976
-0.000787226
-0.000793704
-0.000799189
-0.00080368
-0.000807174
-0.000809667
-0.000811159
-0.000811673
-0.000811233
-0.000809814
-0.000807393
-0.000803972
0.000739244
0.000731668
0.000722743
0.000712492
0.000700939
0.000688113
0.000674046
0.000658771
0.000642326
0.00062475
0.000606085
0.000586374
0.000565664
0.000544002
0.000521439
0.000498024
0.000473811
0.000448851
0.0004232
0.000396911
0.000370041
0.000342644
0.000314776
0.000286494
0.000257851
0.000228903
0.000199705
0.000170311
0.000140773
0.000111144
8.14744e-05
5.1815e-05
2.22145e-05
-7.27947e-06
-3.66207e-05
-6.57644e-05
-9.46669e-05
-0.000123286
-0.000151582
-0.000179516
-0.00020705
-0.000234148
-0.000260777
-0.000286903
-0.000312496
-0.000337525
-0.000361963
-0.000385783
-0.00040896
-0.000431469
-0.00045329
-0.0004744
-0.00049478
-0.000514411
-0.000533276
-0.000551358
-0.000568643
-0.000585117
-0.000600767
-0.00061558
-0.000629546
-0.000642654
-0.000654896
-0.000666263
-0.000676746
-0.00068634
-0.000695039
-0.000702835
-0.000709726
-0.000715706
-0.000720772
-0.000724921
-0.000728151
-0.000730458
-0.000731841
-0.000732318
-0.000731911
-0.000730599
-0.000728361
-0.000725201
0.000665135
0.000658441
0.000650553
0.000641491
0.000631276
0.000619932
0.000607487
0.000593969
0.00057941
0.000563843
0.000547305
0.000529833
0.000511467
0.000492247
0.000472215
0.000451417
0.000429896
0.000407699
0.000384872
0.000361464
0.00033752
0.000313091
0.000288225
0.00026297
0.000237374
0.000211486
0.000185355
0.000159026
0.000132549
0.000105968
7.93298e-05
5.26787e-05
2.60586e-05
-4.87647e-07
-2.69183e-05
-5.31927e-05
-7.92714e-05
-0.000105116
-0.00013069
-0.000155957
-0.000180882
-0.000205434
-0.000229579
-0.000253287
-0.000276529
-0.000299277
-0.000321504
-0.000343186
-0.000364298
-0.000384816
-0.000404721
-0.00042399
-0.000442605
-0.000460547
-0.0004778
-0.000494348