/*--------------------------------*- C++ -*----------------------------------*\
| =========                 |                                                 |
| \\      /  F ield         | OpenFOAM: The Open Source CFD Toolbox           |
|  \\    /   O peration     | Version:  2306                                  |
|   \\  /    A nd           | Website:  www.openfoam.com                      |
|    \\/     M anipulation  |                                                 |
\*---------------------------------------------------------------------------*/
FoamFile
{
    version     2.0;
    format      ascii;
    arch        "LSB;label=32;scalar=64";
    class       surfaceScalarField;
    location    "37.5";
    object      phi;
}
// * * * * * * * * * * * * * * * * * * * * * * * * * * * * * * * * * * * * * //

dimensions      [0 3 -1 0 0 0 0];

oriented        oriented;

internalField   nonuniform List<scalar> 
37980
(
1.83942
4.36868
-2.70374e-08
2.21157
4.35256
-4.34424e-08
2.60404
4.33223
-5.88953e-08
3.02241
4.30633
-7.92745e-08
3.47473
4.27238
-9.65824e-08
3.97405
4.22539
-1.06985e-07
4.5443
4.15445
-9.50947e-08
5.23325
4.03575
-6.5041e-08
6.14573
3.81223
-1.54652e-09
7.60874
3.26169
2.37672e-07
5.89336
1.71538
6.60816e-08
4.64336
1.25
8.36632e-08
3.74001
0.903349
2.78208e-08
3.10139
0.638623
2.63746e-08
2.65195
0.449443
2.62339e-08
2.33091
0.321042
1.97324e-08
2.09484
0.236068
1.08758e-08
1.91526
0.179575
3.73818e-09
1.77364
0.141622
-5.95829e-10
1.65803
0.115616
-2.32339e-09
1.56073
0.0972954
-2.30877e-09
1.47674
0.0839899
-1.30016e-09
1.40271
0.0740344
-8.11667e-11
1.33633
0.0663774
9.62604e-10
1.27599
0.060339
1.60922e-09
1.22052
0.0554678
1.90568e-09
1.16907
0.0514556
1.89521e-09
1.12098
0.0480876
1.75157e-09
1.07577
0.0452111
1.50118e-09
1.03305
0.0427165
1.28503e-09
0.992527
0.040524
1.05368e-09
0.953952
0.0385748
9.05977e-10
0.917127
0.0368253
7.52934e-10
0.881884
0.0352425
6.76201e-10
0.848083
0.0338011
5.81364e-10
0.815601
0.0324815
5.45346e-10
0.784333
0.0312681
4.81996e-10
0.754185
0.0301484
4.64465e-10
0.725073
0.0291122
4.17303e-10
0.696922
0.0281511
4.07759e-10
0.669664
0.0272578
3.70205e-10
0.643238
0.0264262
3.64606e-10
0.617586
0.0256512
3.33947e-10
0.592658
0.024928
3.30719e-10
0.568406
0.0242526
3.05496e-10
0.544784
0.0236214
3.0381e-10
0.521753
0.0230313
2.82939e-10
0.499274
0.0224794
2.82217e-10
0.477311
0.0219631
2.648e-10
0.455831
0.02148
2.64619e-10
0.434803
0.021028
2.49938e-10
0.414197
0.0206053
2.5001e-10
0.393987
0.0202101
2.37518e-10
0.374146
0.0198407
2.37666e-10
0.354651
0.0194958
2.26956e-10
0.335477
0.0191741
2.27079e-10
0.316602
0.0188742
2.17853e-10
0.298007
0.0185952
2.17897e-10
0.279671
0.018336
2.0994e-10
0.261575
0.0180957
2.09877e-10
0.243702
0.0178734
2.03033e-10
0.226033
0.0176685
2.02848e-10
0.208553
0.0174801
1.97007e-10
0.191246
0.0173077
1.96685e-10
0.174095
0.0171507
1.91761e-10
0.157086
0.0170085
1.91251e-10
0.140206
0.0168807
1.87107e-10
0.123439
0.0167668
1.86192e-10
0.106773
0.0166663
1.82473e-10
0.0901936
0.0165791
1.80715e-10
0.073689
0.0165046
1.77195e-10
0.0572463
0.0164427
1.74966e-10
0.0408529
0.0163934
1.72837e-10
0.0244963
0.0163566
1.65756e-10
0.00816318
0.0163331
1.45645e-10
-0.00816154
0.0163247
8.50534e-11
-0.0244946
0.0163331
2.15139e-10
-0.0408512
0.0163566
1.73869e-10
-0.0572445
0.0163933
2.99176e-10
0.0164427
3.18018e-10
2.3739
3.91645
1.61209e-08
2.84323
3.88323
1.63827e-08
3.33474
3.84072
1.44395e-08
3.85494
3.78614
1.08115e-08
4.41219
3.71513
3.93925e-09
5.01689
3.62069
-1.91772e-09
5.67978
3.49156
-8.94136e-09
6.40518
3.31035
-1.38125e-08
7.16233
3.05507
-1.73433e-08
7.71814
2.70588
-1.65314e-08
7.19238
2.24114
1.03889e-08
6.6438
1.79858
1.38298e-08
6.13945
1.4077
1.51037e-08
5.68398
1.0941
1.24673e-08
5.27511
0.858314
1.05092e-08
4.91119
0.68496
6.72149e-09
4.58916
0.558097
1.93869e-09
4.30392
0.464819
-1.88805e-09
4.05009
0.395448
-3.90506e-09
3.82276
0.342948
-4.32731e-09
3.61772
0.30234
-3.73339e-09
3.4315
0.270207
-2.66203e-09
3.2613
0.244232
-1.60668e-09
3.10485
0.222834
-8.01761e-10
2.96027
0.204916
-3.12173e-10
2.82604
0.189696
-1.13617e-10
2.70089
0.176607
-8.50972e-11
2.58375
0.165227
-1.66736e-10
2.47372
0.155238
-2.57809e-10
2.37004
0.146395
-3.49484e-10
2.27206
0.13851
-3.9714e-10
2.1792
0.131434
-4.2522e-10
2.09097
0.12505
-4.17158e-10
2.00695
0.119261
-4.01786e-10
1.92676
0.113992
-3.68749e-10
1.85007
0.109177
-3.39933e-10
1.77657
0.104765
-3.04701e-10
1.70601
0.10071
-2.77982e-10
1.63815
0.0969748
-2.49064e-10
1.57277
0.0935266
-2.28545e-10
1.50969
0.0903377
-2.06727e-10
1.44873
0.0873837
-1.91821e-10
1.38974
0.0846435
-1.75563e-10
1.33257
0.0820985
-1.64745e-10
1.27709
0.0797322
-1.52456e-10
1.22318
0.0775302
-1.44491e-10
1.17073
0.0754793
-1.35038e-10
1.11965
0.0735682
-1.29105e-10
1.06982
0.0717865
-1.2174e-10
1.02118
0.0701249
-1.17301e-10
0.97363
0.0685752
-1.11514e-10
0.927106
0.0671297
-1.08194e-10
0.881534
0.0657817
-1.03615e-10
0.83685
0.0645251
-1.01137e-10
0.792991
0.0633544
-9.74917e-11
0.749901
0.0622645
-9.56506e-11
0.707524
0.0612508
-9.27356e-11
0.66581
0.0603094
-9.13782e-11
0.62471
0.0594363
-8.90448e-11
0.584177
0.0586282
-8.80623e-11
0.544168
0.0578821
-8.6206e-11
0.504642
0.0571952
-8.55229e-11
0.465557
0.0565648
-8.40762e-11
0.426876
0.0559888
-8.36478e-11
0.388561
0.0554651
-8.25772e-11
0.350578
0.0549918
-8.24003e-11
0.312891
0.0545673
-8.17552e-11
0.275468
0.0541901
-8.19763e-11
0.238276
0.0538589
-8.20477e-11
0.201282
0.0535726
-8.30722e-11
0.164456
0.0533302
-8.41336e-11
0.127768
0.053131
-8.56107e-11
0.0911867
0.0529748
-8.63357e-11
0.0546818
0.0528616
-9.12316e-11
0.0182226
0.0527922
-1.08278e-10
-0.0182213
0.0527686
-1.61772e-10
-0.0546804
0.0527922
-7.3092e-11
-0.0911854
0.0528616
-1.07521e-10
-0.127767
0.0529748
-9.32567e-12
0.053131
1.19617e-11
2.33216
3.48033
-1.77507e-09
2.77732
3.43807
-3.23159e-09
3.23286
3.38517
-4.86025e-09
3.69957
3.31943
-7.00316e-09
4.17697
3.23773
-9.07721e-09
4.66205
3.13561
-9.82635e-09
5.14655
3.00706
-8.87977e-09
5.61201
2.84489
-6.00376e-09
6.02408
2.643
-1.56185e-09
6.33022
2.39974
3.07102e-09
6.45157
2.11979
6.2689e-09
6.41983
1.83031
8.93545e-09
6.27028
1.55725
9.66511e-09
6.04559
1.31879
8.39556e-09
5.78271
1.12119
5.66791e-09
5.5059
0.961772
2.48937e-09
5.22982
0.834173
-3.01967e-10
4.96285
0.731788
-2.19733e-09
4.70939
0.648915
-3.00843e-09
4.47132
0.581018
-2.91899e-09
4.249
0.524653
-2.32512e-09
4.04195
0.477263
-1.53561e-09
3.84921
0.436968
-8.34398e-10
3.66968
0.402365
-3.37011e-10
3.5022
0.372395
-6.30134e-11
3.34566
0.346241
1.73593e-11
3.199
0.323261
-8.80601e-12
3.06128
0.302948
-1.02521e-10
2.93163
0.28489
-1.93351e-10
2.80927
0.268755
-2.80092e-10
2.69351
0.254271
-3.29147e-10
2.58373
0.241214
-3.62303e-10
2.47938
0.229397
-3.64537e-10
2.37998
0.218665
-3.60526e-10
2.28509
0.208886
-3.39665e-10
2.19431
0.19995
-3.21461e-10
2.10732
0.191763
-2.95469e-10
2.02378
0.184243
-2.75772e-10
1.94344
0.177321
-2.52225e-10
1.86603
0.170937
-2.35266e-10
1.79133
0.165038
-2.15797e-10
1.71913
0.15958
-2.02038e-10
1.64925
0.154521
-1.86218e-10
1.58152
0.149826
-1.75115e-10
1.51579
0.145465
-1.62198e-10
1.45191
0.14141
-1.53184e-10
1.38975
0.137637
-1.42569e-10
1.3292
0.134123
-1.35232e-10
1.27014
0.13085
-1.26485e-10
1.21246
0.127799
-1.20523e-10
1.15608
0.124955
-1.1331e-10
1.10091
0.122304
-1.08481e-10
1.04686
0.119833
-1.02532e-10
0.993852
0.11753
-9.86323e-11
0.941821
0.115386
-9.37241e-11
0.890694
0.113391
-9.05828e-11
0.840408
0.111537
-8.6533e-11
0.790903
0.109815
-8.40111e-11
0.742121
0.108218
-8.06752e-11
0.694007
0.106742
-7.86634e-11
0.64651
0.105379
-7.59328e-11
0.599581
0.104125
-7.43496e-11
0.553171
0.102974
-7.21482e-11
0.507237
0.101924
-7.09421e-11
0.461733
0.100969
-6.92304e-11
0.416617
0.100107
-6.83951e-11
0.37185
0.0993345
-6.72232e-11
0.327391
0.0986489
-6.69028e-11
0.283202
0.0980479
-6.65682e-11
0.239245
0.0975295
-6.71467e-11
0.195484
0.0970921
-6.79484e-11
0.15188
0.0967343
-6.91282e-11
0.1084
0.0964556
-7.00487e-11
0.0650056
0.0962555
-7.57167e-11
0.0216633
0.0961345
-9.48216e-11
-0.0216619
0.0960939
-1.53334e-10
-0.0650043
0.0961345
-6.22027e-11
-0.108398
0.0962554
-1.21947e-10
-0.151879
0.0964555
-1.60673e-11
0.0967343
-1.41836e-11
2.14749
3.08545
-1.86052e-09
2.54501
3.04055
-2.32341e-09
2.94473
2.98545
-2.91363e-09
3.34532
2.91884
-3.54177e-09
3.74404
2.83901
-4.38611e-09
4.13581
2.74384
-4.59064e-09
4.51198
2.63089
-4.03376e-09
4.859
2.49787
-2.50533e-09
5.15839
2.34361
-3.45717e-10
5.38883
2.16931
1.92572e-09
5.52886
1.97975
3.65893e-09
5.57341
1.78576
4.50034e-09
5.53222
1.59845
4.37398e-09
5.42466
1.42635
3.40732e-09
5.27204
1.27381
2.08992e-09
5.09245
1.14136
7.34899e-10
4.89927
1.02735
-2.58476e-10
4.70168
0.929382
-8.07161e-10
4.5056
0.84499
-9.09858e-10
4.31464
0.771979
-6.91712e-10
4.1308
0.708494
-3.29548e-10
3.95505
0.653008
4.84435e-11
3.78774
0.604278
3.3944e-10
3.62882
0.561287
5.10486e-10
3.47802
0.523198
5.72286e-10
3.33494
0.489317
5.45015e-10
3.19914
0.459063
4.7846e-10
3.07014
0.431949
3.87174e-10
2.94746
0.407564
3.08771e-10
2.83066
0.385559
2.37144e-10
2.71929
0.36564
1.91393e-10
2.61295
0.347555
1.55083e-10
2.51126
0.331089
1.38205e-10
2.41387
0.316056
1.24433e-10
2.32045
0.302299
1.21398e-10
2.23072
0.289681
1.16628e-10
2.1444
0.278082
1.17307e-10
2.06125
0.267399
1.14553e-10
1.98103
0.257542
1.14969e-10
1.90353
0.248432
1.12055e-10
1.82857
0.24
1.11484e-10
1.75597
0.232184
1.08219e-10
1.68556
0.224931
1.06951e-10
1.61719
0.218192
1.03588e-10
1.55073
0.211926
1.01976e-10
1.48604
0.206094
9.87043e-11
1.42302
0.200662
9.69596e-11
1.36154
0.1956
9.38553e-11
1.30151
0.190881
9.20821e-11
1.24283
0.186481
8.91645e-11
1.18541
0.182376
8.74163e-11
1.12916
0.178549
8.46874e-11
1.07402
0.174979
8.29989e-11
1.01989
0.171653
8.04607e-11
0.966726
0.168554
7.88579e-11
0.914448
0.165669
7.65126e-11
0.862998
0.162986
7.50129e-11
0.812317
0.160495
7.28618e-11
0.76235
0.158186
7.14762e-11
0.713043
0.156049
6.95162e-11
0.664345
0.154077
6.82458e-11
0.616208
0.152261
6.64691e-11
0.568586
0.150596
6.5306e-11
0.521434
0.149076
6.36994e-11
0.474709
0.147694
6.26299e-11
0.428369
0.146447
6.11778e-11
0.382373
0.14533
6.01775e-11
0.336684
0.144339
5.88342e-11
0.291261
0.14347
5.78284e-11
0.246068
0.142722
5.65202e-11
0.201069
0.142092
5.56664e-11
0.156226
0.141577
5.50957e-11
0.111504
0.141177
5.59596e-11
0.0668688
0.140891
5.46788e-11
0.0222844
0.140719
4.54852e-11
-0.022283
0.140661
9.17276e-12
-0.0668674
0.140719
6.75553e-11
-0.111503
0.140891
5.29428e-11
-0.156225
0.141177
1.1944e-10
0.141577
1.47301e-10
1.88325
2.74501
-1.76883e-09
2.22144
2.70236
-1.70644e-09
2.55601
2.65088
-1.43616e-09
2.88487
2.58998
-1.33279e-09
3.20493
2.51895
-1.56029e-09
3.51172
2.43705
-1.62191e-09
3.79898
2.34363
-1.5107e-09
4.0585
2.23835
-1.08181e-09
4.28051
2.12161
-5.77623e-10
4.45488
1.99494
-5.7692e-12
4.57329
1.86134
3.49572e-10
4.63358
1.72547
4.61836e-10
4.63985
1.59218
2.97501e-10
4.6007
1.4655
-4.37261e-11
4.52658
1.34793
-4.03145e-10
4.4274
1.24054
-7.05977e-10
4.31139
1.14336
-8.54806e-10
4.18493
1.05585
-8.72463e-10
4.05269
0.977222
-7.70225e-10
3.91806
0.906612
-6.15594e-10
3.78338
0.843173
-4.51164e-10
3.65027
0.786121
-3.23717e-10
3.5198
0.734746
-2.41568e-10
3.39268
0.688412
-2.1581e-10
3.26932
0.646556
-2.21163e-10
3.14996
0.608676
-2.56659e-10
3.0347
0.57433
-2.90512e-10
2.92352
0.543127
-3.29107e-10
2.81636
0.514725
-3.48644e-10
2.71309
0.488821
-3.64662e-10
2.61359
0.465149
-3.60995e-10
2.51767
0.443474
-3.56349e-10
2.42516
0.423593
-3.37947e-10
2.3359
0.405322
-3.23012e-10
2.24969
0.388503
-2.99793e-10
2.16638
0.372996
-2.82564e-10
2.08579
0.358674
-2.60245e-10
2.00776
0.345429
-2.44436e-10
1.93214
0.333162
-2.25039e-10
1.85878
0.321786
-2.11635e-10
1.78756
0.311225
-1.95341e-10
1.71833
0.30141
-1.84231e-10
1.65098
0.292278
-1.70646e-10
1.5854
0.283776
-1.61475e-10
1.52147
0.275853
-1.50155e-10
1.4591
0.268466
-1.42595e-10
1.39819
0.261574
-1.33166e-10
1.33865
0.255141
-1.26957e-10
1.28039
0.249136
-1.19114e-10
1.22335
0.243528
-1.14036e-10
1.16743
0.238292
-1.0752e-10
1.11258
0.233404
-1.03384e-10
1.05871
0.228841
-9.79715e-11
1.00578
0.224584
-9.46118e-11
0.953721
0.220615
-9.01143e-11
0.902472
0.216918
-8.73894e-11
0.851981
0.213477
-8.36506e-11
0.802196
0.21028
-8.14434e-11
0.753068
0.207315
-7.83377e-11
0.704548
0.204569
-7.65567e-11
0.65659
0.202034
-7.39895e-11
0.609152
0.199699
-7.25662e-11
0.562191
0.197558
-7.0475e-11
0.515665
0.195601
-6.93692e-11
0.469536
0.193823
-6.7722e-11
0.423766
0.192218
-6.69238e-11
0.378316
0.19078
-6.5742e-11
0.33315
0.189504
-6.53126e-11
0.288234
0.188387
-6.47333e-11
0.243532
0.187424
-6.47917e-11
0.199011
0.186613
-6.4799e-11
0.154635
0.185952
-6.48145e-11
0.110374
0.185439
-6.44797e-11
0.0661923
0.185072
-6.78562e-11
0.0220592
0.184852
-8.25245e-11
-0.0220579
0.184778
-1.29597e-10
-0.066191
0.184852
-5.89507e-11
-0.110372
0.185072
-1.13797e-10
-0.154634
0.185439
-3.34069e-11
0.185952
-3.83575e-11
1.59948
2.46003
-1.09648e-09
1.87952
2.42232
-7.72961e-10
2.15301
2.37739
-3.49882e-10
2.41792
2.32506
-1.83712e-12
2.67168
2.26519
-2.197e-11
2.91105
2.19768
-6.54646e-11
3.13209
2.12259
-1.01302e-10
3.33022
2.04022
-5.11369e-11
3.5006
1.95123
-1.02773e-11
3.63875
1.85679
7.0044e-11
3.74147
1.75863
1.07693e-10
3.80801
1.65892
1.42712e-10
3.84023
1.55997
1.48589e-10
3.84195
1.46377
1.6192e-10
3.81806
1.37181
1.89216e-10
3.7736
1.28501
2.38928e-10
3.71315
1.20381
3.09205e-10
3.64066
1.12833
3.83404e-10
3.55939
1.05849
4.51715e-10
3.47194
0.99406
4.95918e-10
3.38038
0.934732
5.14864e-10
3.28633
0.880177
5.01575e-10
3.19102
0.830048
4.68382e-10
3.09544
0.784001
4.15644e-10
3.00029
0.741702
3.60754e-10
2.90613
0.702833
3.02638e-10
2.81337
0.667097
2.55353e-10
2.72228
0.634219
2.13035e-10
2.63306
0.603944
1.84506e-10
2.54584
0.57604
1.61058e-10
2.46069
0.550295
1.48272e-10
2.37765
0.526516
1.3755e-10
2.29671
0.50453
1.33286e-10
2.21786
0.484179
1.2849e-10
2.14104
0.465321
1.27215e-10
2.06621
0.447828
1.2422e-10
1.99329
0.431585
1.23249e-10
1.92224
0.416486
1.20393e-10
1.85296
0.402439
1.18936e-10
1.78539
0.389357
1.15862e-10
1.71945
0.377166
1.13925e-10
1.65506
0.365796
1.10716e-10
1.59216
0.355183
1.08496e-10
1.53066
0.345273
1.05281e-10
1.4705
0.336012
1.02936e-10
1.41161
0.327356
9.98052e-11
1.35392
0.319262
9.74404e-11
1.29737
0.311691
9.44376e-11
1.2419
0.304609
9.21158e-11
1.18744
0.297984
8.92673e-11
1.13395
0.291788
8.70333e-11
1.08136
0.285994
8.43566e-11
1.02962
0.280578
8.22421e-11
0.978688
0.275518
7.97508e-11
0.928508
0.270795
7.77798e-11
0.879035
0.266391
7.54834e-11
0.830225
0.262288
7.36708e-11
0.782033
0.258472
7.15753e-11
0.734419
0.254929
6.99287e-11
0.687343
0.251646
6.80338e-11
0.640764
0.248612
6.65519e-11
0.594646
0.245817
6.48509e-11
0.548952
0.243252
6.35215e-11
0.503647
0.240907
6.19999e-11
0.458696
0.238775
6.08058e-11
0.414065
0.236849
5.94528e-11
0.369721
0.235123
5.83882e-11
0.325633
0.233592
5.72102e-11
0.281769
0.232251
5.63087e-11
0.238097
0.231096
5.54025e-11
0.194587
0.230123
5.50284e-11
0.15121
0.22933
5.5206e-11
0.107934
0.228714
5.68121e-11
0.0647318
0.228275
5.71566e-11
0.0215728
0.228011
5.19717e-11
-0.0215717
0.227923
2.71608e-11
-0.0647307
0.228011
6.79703e-11
-0.107933
0.228275
5.91375e-11
-0.151209
0.228714
1.0567e-10
0.22933
1.25592e-10
1.33788
2.22407
-7.66781e-10
1.56808
2.19212
-5.59645e-10
1.79108
2.15439
-2.54535e-10
2.00523
2.11092
-8.09533e-12
2.20862
2.06179
-8.95797e-11
2.39913
2.00717
-2.09285e-10
2.57441
1.94731
-3.47791e-10
2.732
1.88263
-4.28306e-10
2.8695
1.81372
-5.1706e-10
2.98492
1.74138
-5.54219e-10
3.07693
1.66662
-5.82695e-10
3.14525
1.5906
-5.7003e-10
3.19071
1.51451
-5.41229e-10
3.21502
1.43947
-4.76301e-10
3.22047
1.36636
-4.08989e-10
3.20961
1.29587
-3.29797e-10
3.18495
1.22846
-2.62346e-10
3.14886
1.16443
-2.08699e-10
3.10344
1.10391
-1.75359e-10
3.05054
1.04695
-1.65739e-10
2.99177
0.993508
-1.70991e-10
2.92846
0.943485
-1.94433e-10
2.86175
0.896754
-2.19275e-10
2.7926
0.853159
-2.51638e-10
2.72177
0.812531
-2.74142e-10
2.64991
0.774694
-2.97082e-10
2.57753
0.73947
-3.05826e-10
2.50507
0.706684
-3.13553e-10
2.43284
0.676169
-3.08353e-10
2.36112
0.647761
-3.03892e-10
2.29011
0.621308
-2.89925e-10
2.21996
0.596666
-2.78903e-10
2.15079
0.573701
-2.61547e-10
2.08268
0.552289
-2.48462e-10
2.01569
0.532312
-2.3118e-10
1.94985
0.513665
-2.18515e-10
1.88519
0.49625
-2.02884e-10
1.8217
0.479976
-1.91615e-10
1.75937
0.46476
-1.78056e-10
1.69821
0.450526
-1.68364e-10
1.63817
0.437204
-1.56819e-10
1.57923
0.42473
-1.48629e-10
1.52137
0.413045
-1.38897e-10
1.46455
0.402096
-1.32042e-10
1.40873
0.391834
-1.2388e-10
1.35387
0.382214
-1.18184e-10
1.29994
0.373193
-1.11364e-10
1.24689
0.364735
-1.06657e-10
1.1947
0.356805
-1.0097e-10
1.14331
0.349371
-9.70936e-11
1.09269
0.342404
-9.23509e-11
1.04281
0.335876
-8.91644e-11
0.993623
0.329765
-8.52025e-11
0.945095
0.324046
-8.25797e-11
0.89719
0.3187
-7.92587e-11
0.849873
0.313707
-7.70934e-11
0.80311
0.309051
-7.42988e-11
0.756867
0.304715
-7.25034e-11
0.711111
0.300685
-7.01434e-11
0.66581
0.296947
-6.86489e-11
0.620933
0.29349
-6.66546e-11
0.576449
0.290301
-6.5411e-11
0.532328
0.287373
-6.3739e-11
0.48854
0.284694
-6.27189e-11
0.445057
0.282257
-6.13517e-11
0.401851
0.280055
-6.05518e-11
0.358893
0.278081
-5.9506e-11
0.316156
0.276329
-5.89589e-11
0.273613
0.274794
-5.83042e-11
0.231238
0.273471
-5.80343e-11
0.189004
0.272357
-5.76764e-11
0.146884
0.271449
-5.72057e-11
0.104854
0.270744
-5.64415e-11
0.0628873
0.270242
-5.80797e-11
0.0209586
0.26994
-6.7452e-11
-0.0209575
0.269839
-9.8616e-11
-0.0628863
0.26994
-5.2879e-11
-0.104853
0.270242
-9.43024e-11
-0.146883
0.270744
-4.22523e-11
0.271449
-4.84927e-11
1.11445
2.02867
-5.45138e-10
1.30435
2.00222
-4.81088e-10
1.48758
1.97116
-2.34402e-10
1.66288
1.93562
-1.52724e-10
1.82891
1.89576
-2.11514e-10
1.98427
1.8518
-2.76481e-10
2.12756
1.80403
-3.38205e-10
2.25739
1.75281
-3.57572e-10
2.37251
1.69859
-3.75114e-10
2.47195
1.64194
-3.53915e-10
2.55509
1.58347
-3.31807e-10
2.62181
1.52389
-2.73597e-10
2.67245
1.46387
-2.1478e-10
2.70783
1.40408
-1.37316e-10
2.72909
1.34511
-6.78763e-11
2.73752
1.28743
4.54097e-12
2.73456
1.23143
5.81662e-11
2.72159
1.1774
1.01517e-10
2.69996
1.12554
1.25587e-10
2.67093
1.07598
1.36722e-10
2.63565
1.02879
1.35378e-10
2.59514
0.983994
1.25915e-10
2.55032
0.941575
1.13316e-10
2.50199
0.901489
9.79158e-11
2.45085
0.863673
8.50714e-11
2.3975
0.828043
7.29976e-11
2.34246
0.79451
6.54239e-11
2.28617
0.762974
5.91569e-11
2.229
0.733336
5.67643e-11
2.17127
0.705492
5.48536e-11
2.11324
0.679341
5.54576e-11
2.05512
0.654784
5.57407e-11
1.9971
0.631726
5.74529e-11
1.93931
0.610074
5.82935e-11
1.88188
0.589741
5.97394e-11
1.8249
0.570645
6.02345e-11
1.76844
0.552707
6.0902e-11
1.71257
0.535854
6.08522e-11
1.65731
0.520017
6.10827e-11
1.6027
0.505132
6.09066e-11
1.54877
0.49114
6.08283e-11
1.49551
0.477985
6.03004e-11
1.44294
0.465616
5.97536e-11
1.39105
0.453984
5.89495e-11
1.33984
0.443045
5.81383e-11
1.2893
0.432758
5.71587e-11
1.23941
0.423084
5.61707e-11
1.19015
0.413989
5.50875e-11
1.14152
0.40544
5.39888e-11
1.09348
0.397407
5.28378e-11
1.04603
0.389862
5.16987e-11
0.999124
0.382778
5.05276e-11
0.952756
0.376133
4.93834e-11
0.906898
0.369904
4.82263e-11
0.861527
0.364071
4.71141e-11
0.816619
0.358615
4.60015e-11
0.772151
0.353519
4.49498e-11
0.728098
0.348768
4.39001e-11
0.684437
0.344346
4.29233e-11
0.641143
0.34024
4.19494e-11
0.598194
0.336439
4.10564e-11
0.555565
0.33293
4.01641e-11
0.513234
0.329704
3.93525e-11
0.471177
0.326751
3.85376e-11
0.429372
0.324063
3.77971e-11
0.387796
0.321632
3.70536e-11
0.346426
0.319451
3.63829e-11
0.30524
0.317515
3.5725e-11
0.264216
0.315818
3.51727e-11
0.223332
0.314355
3.4704e-11
0.182566
0.313123
3.45704e-11
0.141896
0.312119
3.48697e-11
0.101302
0.311339
3.61558e-11
0.0607598
0.310783
3.70373e-11
0.02025
0.31045
3.53556e-11
-0.0202491
0.310338
2.36728e-11
-0.0607589
0.31045
4.21788e-11
-0.101301
0.310783
4.00166e-11
-0.141896
0.311339
6.11726e-11
0.312119
7.52088e-11
0.929282
1.86616
3.00161e-11
1.08701
1.8445
7.83829e-11
1.23902
1.81915
1.15937e-10
1.38438
1.79026
1.64405e-10
1.52214
1.758
6.5551e-11
1.65137
1.72258
-2.45016e-11
1.77116
1.68424
-1.09242e-10
1.88069
1.64327
-1.49082e-10
1.97925
1.60004
-1.92796e-10
2.06629
1.5549
-2.03471e-10
2.14147
1.50829
-2.24592e-10
2.20471
1.46065
-2.18074e-10
2.25616
1.41242
-2.23439e-10
2.29621
1.36402
-2.08638e-10
2.32546
1.31586
-2.06794e-10
2.34461
1.26828
-2.03487e-10
2.35447
1.22157
-1.9619e-10
2.35588
1.17599
-1.94024e-10
2.34969
1.13172
-2.00849e-10
2.33675
1.08892
-2.05356e-10
2.31785
1.04769
-2.14492e-10
2.29374
1.00811
-2.21419e-10
2.26511
0.970203
-2.28672e-10
2.2326
0.934001
-2.33476e-10
2.19678
0.899492
-2.35654e-10
2.15817
0.866655
-2.35894e-10
2.11722
0.835455
-2.32689e-10
2.07435
0.805847
-2.28732e-10
2.02991
0.777779
-2.21671e-10
1.98421
0.751192
-2.15073e-10
1.93752
0.726028
-2.06081e-10
1.89008
0.702222
-1.9841e-10
1.8421
0.679712
-1.88951e-10
1.79373
0.658436
-1.81045e-10
1.74515
0.63833
-1.71692e-10
1.69645
0.619336
-1.64052e-10
1.64777
0.601395
-1.55398e-10
1.59917
0.58445
-1.48391e-10
1.55074
0.568449
-1.40695e-10
1.50253
0.55334
-1.34592e-10
1.45459
0.539076
-1.27834e-10
1.40697
0.525609
-1.22464e-10
1.35969
0.512898
-1.16604e-10
1.31277
0.500901
-1.11959e-10
1.26624
0.48958
-1.06904e-10
1.22009
0.4789
-1.02911e-10
1.17435
0.468827
-9.85792e-11
1.12901
0.45933
-9.52194e-11
1.08407
0.450378
-9.15094e-11
1.03953
0.441946
-8.86e-11
0.995386
0.434008
-8.54149e-11
0.951625
0.426539
-8.29471e-11
0.908239
0.419519
-8.02471e-11
0.865219
0.412925
-7.81384e-11
0.82255
0.406739
-7.5812e-11
0.780221
0.400944
-7.39902e-11
0.738217
0.395523
-7.1961e-11
0.696524
0.390461
-7.03813e-11
0.655127
0.385744
-6.86214e-11
0.614009
0.381358
-6.72584e-11
0.573155
0.377293
-6.57278e-11
0.532548
0.373537
-6.45427e-11
0.492172
0.37008
-6.32151e-11
0.45201
0.366913
-6.21947e-11
0.412045
0.364028
-6.10698e-11
0.37226
0.361417
-6.02231e-11
0.332638
0.359073
-5.93268e-11
0.293161
0.356991
-5.86833e-11
0.253813
0.355166
-5.80697e-11
0.214577
0.353592
-5.76451e-11
0.175435
0.352266
-5.72699e-11
0.13637
0.351184
-5.67945e-11
0.0973646
0.350345
-5.63201e-11
0.0584019
0.349746
-5.71937e-11
0.0194647
0.349387
-6.25523e-11
-0.0194639
0.349267
-7.9707e-11
-0.0584011
0.349387
-5.53767e-11
-0.0973637
0.349746
-8.36405e-11
-0.136369
0.350345
-5.61083e-11
0.351184
-6.42933e-11
0.77775
1.7302
-6.72668e-11
0.909731
1.71251
-1.07044e-10
1.03701
1.69187
-1.81838e-11
1.15888
1.66839
-3.71691e-11
1.27466
1.64222
-8.12761e-11
1.3837
1.61354
-1.12629e-10
1.48538
1.58256
-1.36592e-10
1.57916
1.54949
-1.3881e-10
1.6646
1.5146
-1.44302e-10
1.74134
1.47816
-1.3528e-10
1.80917
1.44046
-1.34135e-10
1.86801
1.40181
-1.20776e-10
1.91792
1.36251
-1.15898e-10
1.9591
1.32285
-1.01242e-10
1.99184
1.28312
-9.5021e-11
2.01656
1.24356
-8.18614e-11
2.03373
1.20441
-7.66878e-11
2.04386
1.16586
-6.68788e-11
2.04751
1.12808
-6.30837e-11
2.04521
1.09122
-5.5978e-11
2.03753
1.05538
-5.28816e-11
2.02499
1.02065
-4.70854e-11
2.0081
0.987088
-4.36289e-11
1.98735
0.954748
-3.79685e-11
1.96319
0.923651
-3.36944e-11
1.93604
0.89381
-2.78342e-11
1.90627
0.865223
-2.30124e-11
1.87424
0.837879
-1.72161e-11
1.84026
0.81176
-1.2419e-11
1.80461
0.786838
-7.11523e-12
1.76756
0.763084
-2.8417e-12
1.72932
0.740462
1.67484e-12
1.6901
0.718934
5.17076e-12
1.65007
0.698462
8.82295e-12
1.6094
0.679004
1.15128e-11
1.56821
0.66052
1.43595e-11
1.52664
0.64297
1.63161e-11
1.48478
0.626312
1.847e-11
1.44272
0.610507
1.98078e-11
1.40054
0.595517
2.13824e-11
1.35831
0.581304
2.22163e-11
1.31609
0.567833
2.33257e-11
1.27392
0.555068
2.37652e-11
1.23184
0.542979
2.45195e-11
1.18989
0.531532
2.46785e-11
1.14809
0.520698
2.50061e-11
1.10647
0.51045
2.28541e-11
1.06504
0.500759
2.75228e-11
1.02382
0.491602
2.47375e-11
0.982809
0.482953
2.50493e-11
0.942025
0.474792
2.48107e-11
0.901468
0.467096
2.47398e-11
0.86114
0.459847
2.41164e-11
0.82104
0.453025
2.37343e-11
0.781165
0.446614
2.32056e-11
0.741512
0.440597
2.30822e-11
0.702076
0.434959
2.27551e-11
0.66285
0.429687
2.26225e-11
0.623827
0.424767
2.21709e-11
0.584998
0.420187
2.18476e-11
0.546355
0.415936
2.13509e-11
0.507887
0.412004
2.10664e-11
0.469585
0.408382
2.06652e-11
0.431437
0.405061
2.04582e-11
0.393433
0.402032
2.01166e-11
0.35556
0.399289
1.98746e-11
0.317808
0.396826
1.95185e-11
0.280163
0.394636
1.92908e-11
0.242614
0.392715
1.90089e-11
0.205148
0.391058
1.8891e-11
0.167752
0.389661
1.88919e-11
0.130414
0.388522
1.92212e-11
0.093121
0.387638
2.00746e-11
0.0558599
0.387007
2.11201e-11
0.0186181
0.386629
2.17585e-11
-0.0186174
0.386502
1.98539e-11
-0.0558593
0.386629
2.32379e-11
-0.0931203
0.387007
2.63659e-11
-0.130413
0.387638
2.99874e-11
0.388522
3.88333e-11
0.654108
1.61573
2.42485e-10
0.765334
1.60129
2.44804e-10
0.872765
1.58444
2.18212e-10
0.975865
1.56529
2.09685e-10
1.07412
1.54396
1.52961e-10
1.16706
1.52061
1.09318e-10
1.25424
1.49537
6.87316e-11
1.33529
1.46844
4.89389e-11
1.40988
1.44
2.34391e-11
1.47778
1.41026
1.09668e-11
1.53882
1.37942
-1.16297e-11
1.59293
1.34771
-2.2947e-11
1.6401
1.31533
-4.41666e-11
1.68044
1.28251
-5.47679e-11
1.71411
1.24945
-7.38752e-11
1.74134
1.21633
-8.33343e-11
1.76241
1.18334
-9.9546e-11
1.77764
1.15063
-1.07296e-10
1.78738
1.11834
-1.19989e-10
1.792
1.0866
-1.25461e-10
1.79187
1.0555
-1.34287e-10
1.78737
1.02514
-1.37183e-10
1.77888
0.995584
-1.4227e-10
1.76674
0.966885
-1.42728e-10
1.75131
0.939085
-1.44649e-10
1.7329
0.912214
-1.43154e-10
1.71184
0.88629
-1.42721e-10
1.68839
0.861323
-1.39902e-10
1.66284
0.837315
-1.3793e-10
1.63541
0.814259
-1.34361e-10
1.60635
0.792146
-1.31509e-10
1.57585
0.77096
-1.27619e-10
1.54411
0.750683
-1.2435e-10
1.51128
0.731292
-1.20416e-10
1.47752
0.712764
-1.17029e-10
1.44296
0.695074
-1.13217e-10
1.40774
0.678195
-1.09897e-10
1.37195
0.6621
-1.06305e-10
1.33569
0.646761
-1.03162e-10
1.29906
0.632151
-9.98414e-11
1.26212
0.618244
-9.6933e-11
1.22494
0.605011
-9.39053e-11
1.18758
0.592427
-9.12578e-11
1.15009
0.580467
-8.8524e-11
1.11252
0.569105
-8.61294e-11
1.0749
0.558319
-8.36683e-11
1.03727
0.548084
-8.15048e-11
0.999645
0.53838
-7.93041e-11
0.962061
0.529186
-7.72234e-11
0.924534
0.520481
-7.53649e-11
0.887079
0.512246
-7.56487e-11
0.849711
0.504465
-7.50457e-11
0.81244
0.497118
-7.06656e-11
0.775273
0.490192
-6.63845e-11
0.738216
0.48367
-6.52736e-11
0.701274
0.477539
-6.55719e-11
0.664449
0.471785
-6.60772e-11
0.627741
0.466395
-6.41604e-11
0.59115
0.461358
-6.28523e-11
0.554673
0.456663
-6.16221e-11
0.518309
0.452301
-6.05578e-11
0.482052
0.448261
-5.95269e-11
0.4459
0.444535
-5.86061e-11
0.409845
0.441115
-5.76906e-11
0.373883
0.437994
-5.68709e-11
0.338007
0.435165
-5.60592e-11
0.302209
0.432623
-5.54189e-11
0.266484
0.430362
-5.48284e-11
0.230821
0.428377
-5.43245e-11
0.195215
0.426664
-5.38565e-11
0.159656
0.42522
-5.35773e-11
0.124137
0.424042
-5.32294e-11
0.0886472
0.423127
-5.31441e-11
0.0531798
0.422474
-5.36509e-11
0.0177253
0.422083
-5.62033e-11
-0.0177247
0.421952
-6.31661e-11
-0.0531791
0.422083
-5.48178e-11
-0.0886466
0.422474
-7.34415e-11
-0.124136
0.423127
-6.40647e-11
0.424042
-7.16714e-11
0.553084
1.51878
6.25481e-11
0.647434
1.50694
2.04713e-11
0.738746
1.49313
5.10686e-11
0.826605
1.47743
2.54699e-11
0.91062
1.45995
4.91543e-12
0.990431
1.4408
-6.57133e-12
1.06571
1.42009
-1.58974e-11
1.13618
1.39798
-1.69409e-11
1.20159
1.37459
-2.21853e-11
1.26176
1.35008
-2.22729e-11
1.31657
1.32462
-2.83434e-11
1.36592
1.29835
-2.92559e-11
1.4098
1.27145
-3.56124e-11
1.44825
1.24406
-3.64239e-11
1.48135
1.21635
-4.18214e-11
1.50924
1.18845
-4.17048e-11
1.53207
1.16051
-4.54075e-11
1.55005
1.13265
-4.39907e-11
1.56341
1.10498
-4.57651e-11
1.57239
1.07762
-4.30261e-11
1.57725
1.05065
-4.30093e-11
1.57825
1.02414
-3.91788e-11
1.57565
0.998178
-3.77551e-11
1.56973
0.972807
-3.32182e-11
1.56074
0.948078
-3.08845e-11
1.54893
0.924027
-2.60648e-11
1.53453
0.900681
-2.33041e-11
1.5178
0.878063
-1.85665e-11
1.49893
0.856185
-1.57607e-11
1.47813
0.835056
-1.13587e-11
1.4556
0.814679
-8.75787e-12
1.4315
0.795051
-4.83051e-12
1.40602
0.776167
-2.56937e-12
1.37929
0.758018
8.32817e-13
1.35146
0.740593
2.70351e-12
1.32266
0.723878
5.5853e-12
1.293
0.707857
7.06403e-12
1.26258
0.692515
9.45939e-12
1.23151
0.677834
1.05733e-11
1.19987
0.663795
1.25295e-11
1.16773
0.650379
1.33183e-11
1.13517
0.637569
1.48887e-11
1.10225
0.625345
1.53996e-11
1.06903
0.613688
1.66385e-11
1.03556
0.602579
1.69199e-11
1.00188
0.592001
1.78815e-11
0.968025
0.581937
1.79836e-11
0.934038
0.572367
1.87245e-11
0.899947
0.563277
1.87056e-11
0.865778
0.55465
1.92893e-11
0.831554
0.54647
1.92248e-11
0.797297
0.538722
1.96163e-11
0.763021
0.531394
1.9205e-11
0.728743
0.52447
1.9263e-11
0.694474
0.517939
1.89383e-11
0.660224
0.511789
1.92226e-11
0.626003
0.506007
1.90618e-11
0.591815
0.500583
1.92527e-11
0.557666
0.495507
1.88871e-11
0.523561
0.490769
1.88378e-11
0.489501
0.486361
1.85028e-11
0.455487
0.482274
1.85395e-11
0.42152
0.478501
1.84085e-11
0.3876
0.475035
1.81635e-11
0.353725
0.471869
1.84325e-11
0.319894
0.468997
1.69734e-11
0.286103
0.466414
1.67993e-11
0.25235
0.464115
1.88995e-11
0.218632
0.462096
1.73403e-11
0.184943
0.460352
1.73792e-11
0.151281
0.458882
1.74228e-11
0.11764
0.457682
1.77011e-11
0.0840167
0.456751
1.8199e-11
0.0504053
0.456086
1.92506e-11
0.0168011
0.455687
2.11652e-11
-0.0168006
0.455554
2.48548e-11
-0.0504047
0.455687
1.92682e-11
-0.0840162
0.456086
2.65835e-11
-0.11764
0.456751
1.92698e-11
0.457682
2.57311e-11
0.470212
1.43618
1.64573e-10
0.550724
1.42643
1.66079e-10
0.628808
1.41504
1.41364e-10
0.704138
1.4021
1.37054e-10
0.77641
1.38768
1.10123e-10
0.845343
1.37186
8.9738e-11
0.910685
1.35475
7.01787e-11
0.972213
1.33645
6.04404e-11
1.02974
1.31706
4.7131e-11
1.08311
1.29671
3.98505e-11
1.13222
1.27551
2.67534e-11
1.17699
1.25358
1.92467e-11
1.21739
1.23105
6.07656e-12
1.25341
1.20804
-1.2363e-12
1.2851
1.18466
-1.35559e-11
1.31252
1.16103
-1.99657e-11
1.33578
1.13725
-3.06936e-11
1.355
1.11343
-3.57621e-11
1.37032
1.08966
-4.45274e-11
1.38192
1.06602
-4.81032e-11
1.38995
1.04261
-5.48479e-11
1.39462
1.01948
-5.6997e-11
1.3961
0.996694
-6.18828e-11
1.3946
0.974313