/*--------------------------------*- C++ -*----------------------------------*\
| =========                 |                                                 |
| \\      /  F ield         | OpenFOAM: The Open Source CFD Toolbox           |
|  \\    /   O peration     | Version:  2306                                  |
|   \\  /    A nd           | Website:  www.openfoam.com                      |
|    \\/     M anipulation  |                                                 |
\*---------------------------------------------------------------------------*/
FoamFile
{
    version     2.0;
    format      ascii;
    arch        "LSB;label=32;scalar=64";
    class       volVectorField;
    location    "37.5";
    object      U;
}
// * * * * * * * * * * * * * * * * * * * * * * * * * * * * * * * * * * * * * //

dimensions      [0 1 -1 0 0 0 0];

internalField   nonuniform List<vector> 
14400
(
(0.065806 0.481945 2.34553e-09)
(0.0802223 0.481076 1.19918e-09)
(0.0953529 0.480016 8.53994e-10)
(0.111392 0.478704 1.25193e-10)
(0.128623 0.476993 -6.77831e-10)
(0.147382 0.474486 -1.46885e-09)
(0.167758 0.470104 -2.81222e-09)
(0.191039 0.460816 -2.40936e-09)
(0.23071 0.43561 -4.56986e-09)
(0.303508 0.347051 -2.12428e-09)
(0.262397 0.0895829 -2.10347e-09)
(0.197095 0.0654604 -9.66151e-10)
(0.163869 0.0531364 -5.68952e-10)
(0.135536 0.0367043 -2.95115e-10)
(0.113569 0.0221994 -1.012e-10)
(0.0979138 0.0127232 -2.11161e-11)
(0.0870649 0.00735204 2.61847e-11)
(0.0790956 0.00432198 3.07698e-11)
(0.0728849 0.00259663 1.75629e-11)
(0.067874 0.00160676 -4.02608e-12)
(0.0637098 0.00103051 -2.80917e-11)
(0.0601533 0.000689172 -4.37261e-11)
(0.0570454 0.000484438 -5.50878e-11)
(0.0542786 0.000361352 -5.73222e-11)
(0.0517782 0.000288264 -5.65481e-11)
(0.0494905 0.000246285 -5.15796e-11)
(0.0473766 0.000223746 -4.63412e-11)
(0.0454072 0.000213239 -4.05223e-11)
(0.0435605 0.000209986 -3.57568e-11)
(0.0418194 0.000210892 -3.15561e-11)
(0.0401706 0.000213965 -2.85229e-11)
(0.0386035 0.000217944 -2.59189e-11)
(0.0371093 0.000222056 -2.42112e-11)
(0.035681 0.000225846 -2.25416e-11)
(0.0343124 0.00022907 -2.15408e-11)
(0.0329984 0.000231618 -2.03135e-11)
(0.0317345 0.000233465 -1.96405e-11)
(0.0305168 0.000234637 -1.86283e-11)
(0.0293418 0.000235188 -1.81179e-11)
(0.0282063 0.000235187 -1.72444e-11)
(0.0271076 0.000234706 -1.68362e-11)
(0.026043 0.00023382 -1.60791e-11)
(0.0250102 0.000232597 -1.57484e-11)
(0.0240071 0.0002311 -1.50967e-11)
(0.0230317 0.000229387 -1.48278e-11)
(0.0220822 0.000227507 -1.42699e-11)
(0.0211569 0.000225503 -1.40496e-11)
(0.0202543 0.000223415 -1.35733e-11)
(0.0193728 0.000221273 -1.33908e-11)
(0.0185111 0.000219105 -1.29849e-11)
(0.0176679 0.000216934 -1.28318e-11)
(0.0168421 0.00021478 -1.24869e-11)
(0.0160325 0.000212658 -1.2357e-11)
(0.0152381 0.000210582 -1.20659e-11)
(0.0144578 0.000208562 -1.1955e-11)
(0.0136907 0.000206608 -1.17121e-11)
(0.0129359 0.000204726 -1.16173e-11)
(0.0121927 0.000202923 -1.14191e-11)
(0.0114601 0.000201202 -1.13384e-11)
(0.0107373 0.000199568 -1.11825e-11)
(0.0100238 0.000198022 -1.11148e-11)
(0.00931874 0.000196566 -1.10008e-11)
(0.00862147 0.000195201 -1.09454e-11)
(0.00793135 0.000193927 -1.08744e-11)
(0.00724776 0.000192745 -1.08314e-11)
(0.00657011 0.000191652 -1.08067e-11)
(0.0058978 0.000190647 -1.07781e-11)
(0.00523029 0.000189726 -1.08069e-11)
(0.00456703 0.000188886 -1.08017e-11)
(0.00390749 0.000188122 -1.08965e-11)
(0.00325116 0.000187429 -1.09367e-11)
(0.00259753 0.000186803 -1.11149e-11)
(0.0019461 0.000186243 -1.11807e-11)
(0.00129639 0.00018576 -1.14316e-11)
(0.000647922 0.000185382 -1.15103e-11)
(3.25111e-08 0.000185226 -1.15119e-11)
(-0.000647857 0.000185381 -1.29149e-11)
(-0.00129633 0.000185758 -2.90732e-12)
(-0.00194603 0.00018624 -3.3562e-11)
(-0.00259746 0.000186799 -8.61572e-13)
(0.085095 0.436124 5.79248e-10)
(0.10334 0.433248 4.71289e-10)
(0.122356 0.429532 3.15353e-10)
(0.142369 0.424687 1.97396e-10)
(0.163674 0.418233 -1.06351e-10)
(0.186637 0.409358 -3.58207e-10)
(0.211694 0.396621 -7.491e-10)
(0.239581 0.37757 -9.89966e-10)
(0.271278 0.34916 -1.05601e-09)
(0.30004 0.309454 -1.07984e-09)
(0.299648 0.252342 -8.20569e-10)
(0.276018 0.192122 -6.28374e-10)
(0.25309 0.139352 -3.44993e-10)
(0.234023 0.10101 -2.12064e-10)
(0.217144 0.0747413 -5.57867e-11)
(0.2018 0.0563901 -8.23461e-12)
(0.188145 0.0434675 3.2198e-11)
(0.176126 0.0343863 2.86366e-11)
(0.16548 0.0279763 9.15865e-12)
(0.155977 0.0233867 -1.34068e-11)
(0.147434 0.0200281 -3.88848e-11)
(0.139701 0.0175076 -5.3683e-11)
(0.132653 0.0155674 -6.29692e-11)
(0.126192 0.0140378 -6.45546e-11)
(0.120236 0.0128054 -6.09414e-11)
(0.114717 0.0117924 -5.57711e-11)
(0.109582 0.0109448 -4.83357e-11)
(0.104784 0.010224 -4.26035e-11)
(0.100285 0.009602 -3.65026e-11)
(0.0960518 0.00905846 -3.2498e-11)
(0.0920565 0.0085782 -2.87606e-11)
(0.0882749 0.00814985 -2.63462e-11)
(0.0846864 0.00776476 -2.43034e-11)
(0.0812727 0.00741627 -2.27702e-11)
(0.078018 0.00709915 -2.1628e-11)
(0.0749082 0.00680925 -2.04808e-11)
(0.0719308 0.00654322 -1.97631e-11)
(0.0690748 0.00629832 -1.87888e-11)
(0.0663304 0.00607227 -1.82809e-11)
(0.0636887 0.00586315 -1.74194e-11)
(0.0611416 0.00566932 -1.70352e-11)
(0.0586821 0.00548937 -1.62765e-11)
(0.0563035 0.00532209 -1.59776e-11)
(0.0539999 0.00516639 -1.53183e-11)
(0.0517659 0.00502134 -1.50816e-11)
(0.0495965 0.00488611 -1.45144e-11)
(0.0474872 0.00475994 -1.4323e-11)
(0.0454338 0.00464218 -1.38376e-11)
(0.0434323 0.00453221 -1.36792e-11)
(0.0414793 0.00442952 -1.32651e-11)
(0.0395714 0.0043336 -1.31313e-11)
(0.0377055 0.00424403 -1.27789e-11)
(0.0358788 0.00416041 -1.26643e-11)
(0.0340885 0.00408236 -1.23659e-11)
(0.0323322 0.00400958 -1.22676e-11)
(0.0306074 0.00394176 -1.20169e-11)
(0.0289121 0.00387862 -1.19333e-11)
(0.027244 0.00381993 -1.17256e-11)
(0.0256012 0.00376546 -1.16563e-11)
(0.0239819 0.00371501 -1.14885e-11)
(0.0223842 0.00366838 -1.14337e-11)
(0.0208064 0.00362542 -1.13038e-11)
(0.019247 0.00358597 -1.12648e-11)
(0.0177043 0.00354989 -1.11723e-11)
(0.0161768 0.00351706 -1.11506e-11)
(0.0146633 0.00348735 -1.1097e-11)
(0.0131621 0.00346068 -1.10954e-11)
(0.0116721 0.00343693 -1.10846e-11)
(0.0101918 0.00341604 -1.111e-11)
(0.0087201 0.00339792 -1.1149e-11)
(0.00725565 0.00338252 -1.12144e-11)
(0.00579725 0.00336978 -1.13129e-11)
(0.00434369 0.0033597 -1.13963e-11)
(0.00289379 0.0033523 -1.15235e-11)
(0.00144644 0.00334767 -1.1635e-11)
(2.59512e-08 0.00334608 -1.16144e-11)
(-0.00144639 0.00334767 -1.26381e-11)
(-0.00289374 0.0033523 -5.7621e-12)
(-0.00434364 0.0033597 -2.65992e-11)
(-0.0057972 0.00336978 -8.64249e-12)
(0.0838174 0.390571 1.79378e-10)
(0.101289 0.386425 1.38986e-10)
(0.119151 0.38117 8.53929e-11)
(0.137448 0.374524 5.50158e-11)
(0.156196 0.366071 -2.90578e-11)
(0.175346 0.355187 -8.43324e-11)
(0.194697 0.340985 -2.01814e-10)
(0.213765 0.322335 -2.48197e-10)
(0.231687 0.298121 -3.2963e-10)
(0.246693 0.267586 -3.35784e-10)
(0.255299 0.230923 -2.99802e-10)
(0.256672 0.194173 -2.50796e-10)
(0.25273 0.160182 -1.53364e-10)
(0.244979 0.131006 -1.08801e-10)
(0.234989 0.107518 -3.92498e-11)
(0.224066 0.0892992 -1.8453e-11)
(0.212974 0.0753135 -3.25315e-12)
(0.202135 0.0645467 -8.48966e-12)
(0.191778 0.0561739 -2.30704e-11)
(0.182014 0.049564 -3.63074e-11)
(0.17288 0.0442533 -5.04226e-11)
(0.164367 0.039911 -5.76883e-11)
(0.156445 0.0363031 -6.06276e-11)
(0.149069 0.0332633 -5.9851e-11)
(0.142194 0.0306709 -5.51085e-11)
(0.135776 0.0284368 -5.06484e-11)
(0.129769 0.0264936 -4.41919e-11)
(0.124136 0.0247896 -3.97965e-11)
(0.118838 0.0232845 -3.47257e-11)
(0.113845 0.0219465 -3.16543e-11)
(0.109127 0.02075 -2.84281e-11)
(0.104657 0.0196747 -2.64787e-11)
(0.100413 0.0187037 -2.45397e-11)
(0.096375 0.0178235 -2.32094e-11)
(0.0925237 0.0170225 -2.19774e-11)
(0.0888432 0.0162914 -2.09332e-11)
(0.0853191 0.0156219 -2.0065e-11)
(0.0819382 0.0150075 -1.91671e-11)
(0.0786891 0.0144421 -1.8504e-11)
(0.0755612 0.0139209 -1.77132e-11)
(0.0725451 0.0134394 -1.7186e-11)
(0.0696322 0.0129939 -1.64942e-11)
(0.0668149 0.0125811 -1.60673e-11)
(0.0640861 0.0121981 -1.54694e-11)
(0.0614394 0.0118424 -1.51191e-11)
(0.0588689 0.0115116 -1.46064e-11)
(0.0563692 0.0112038 -1.43146e-11)
(0.0539354 0.0109172 -1.3877e-11)
(0.051563 0.0106502 -1.36304e-11)
(0.0492476 0.0104014 -1.32577e-11)
(0.0469854 0.0101694 -1.30466e-11)
(0.0447728 0.00995323 -1.27302e-11)
(0.0426063 0.00975171 -1.25483e-11)
(0.0404828 0.00956394 -1.22808e-11)
(0.0383993 0.00938908 -1.21242e-11)
(0.036353 0.00922636 -1.19e-11)
(0.0343413 0.00907509 -1.17661e-11)
(0.0323618 0.00893464 -1.15808e-11)
(0.0304121 0.00880444 -1.14685e-11)
(0.02849 0.00868399 -1.1319e-11)
(0.0265933 0.0085728 -1.12278e-11)
(0.0247202 0.00847046 -1.11123e-11)
(0.0228685 0.00837659 -1.10428e-11)
(0.0210366 0.00829084 -1.09606e-11)
(0.0192227 0.00821291 -1.09145e-11)
(0.017425 0.00814252 -1.08669e-11)
(0.0156419 0.00807941 -1.0848e-11)
(0.0138718 0.00802338 -1.08386e-11)
(0.0121132 0.00797422 -1.08567e-11)
(0.0103646 0.00793178 -1.08913e-11)
(0.00862436 0.00789592 -1.09651e-11)
(0.00689117 0.00786653 -1.10516e-11)
(0.00516355 0.00784357 -1.11528e-11)
(0.00344011 0.00782703 -1.12767e-11)
(0.00171958 0.00781698 -1.13726e-11)
(2.78005e-08 0.00781359 -1.13092e-11)
(-0.00171952 0.00781698 -1.27301e-11)
(-0.00344005 0.00782703 -3.91776e-12)
(-0.00516349 0.00784357 -3.07543e-11)
(-0.00689111 0.00786653 -3.37627e-12)
(0.0773611 0.346699 1.11264e-10)
(0.0930857 0.341938 9.03282e-11)
(0.108913 0.33604 3.33857e-11)
(0.124812 0.328822 1.41785e-11)
(0.140709 0.320035 -2.8708e-11)
(0.156459 0.309355 -5.17789e-11)
(0.171804 0.29639 -9.83291e-11)
(0.186308 0.28074 -1.1474e-10)
(0.199342 0.262142 -1.37219e-10)
(0.2101 0.240642 -1.37121e-10)
(0.217582 0.216795 -1.2004e-10)
(0.221201 0.192338 -1.03701e-10)
(0.221119 0.168908 -6.63724e-11)
(0.217966 0.147759 -4.86869e-11)
(0.212603 0.129463 -2.35721e-11)
(0.205853 0.114 -1.64559e-11)
(0.198346 0.101045 -1.34057e-11)
(0.190519 0.0901953 -1.69797e-11)
(0.182662 0.0810679 -2.43019e-11)
(0.174955 0.0733382 -3.01488e-11)
(0.167504 0.0667427 -3.50606e-11)
(0.160362 0.0610732 -3.72333e-11)
(0.153554 0.0561662 -3.62639e-11)
(0.147082 0.0518926 -3.46579e-11)
(0.14094 0.0481496 -3.04051e-11)
(0.135112 0.0448538 -2.74793e-11)
(0.129583 0.0419375 -2.30661e-11)
(0.124333 0.0393448 -2.06254e-11)
(0.119344 0.0370298 -1.74533e-11)
(0.114597 0.034954 -1.59583e-11)
(0.110073 0.0330854 -1.40574e-11)
(0.105757 0.0313973 -1.32566e-11)
(0.101633 0.029867 -1.21907e-11)
(0.0976858 0.0284753 -1.17366e-11)
(0.0939028 0.027206 -1.11167e-11)
(0.0902715 0.0260451 -1.07953e-11)
(0.0867809 0.0249809 -1.03973e-11)
(0.0834204 0.0240029 -1.01223e-11)
(0.0801808 0.0231024 -9.84138e-12)
(0.0770533 0.0222717 -9.59146e-12)
(0.07403 0.0215039 -9.38113e-12)
(0.0711036 0.0207933 -9.15554e-12)
(0.0682674 0.0201347 -8.99223e-12)
(0.0655151 0.0195234 -8.79242e-12)
(0.0628411 0.0189556 -8.66139e-12)
(0.0602401 0.0184276 -8.48693e-12)
(0.0577072 0.0179362 -8.37805e-12)
(0.0552378 0.0174786 -8.22711e-12)
(0.0528278 0.0170523 -8.13363e-12)
(0.0504731 0.016655 -8.00404e-12)
(0.0481702 0.0162847 -7.92194e-12)
(0.0459156 0.0159395 -7.8118e-12)
(0.043706 0.0156177 -7.73907e-12)
(0.0415386 0.0153179 -7.64693e-12)
(0.0394103 0.0150387 -7.58288e-12)
(0.0373187 0.0147789 -7.50771e-12)
(0.0352611 0.0145375 -7.45252e-12)
(0.0332351 0.0143133 -7.39374e-12)
(0.0312385 0.0141055 -7.34814e-12)
(0.0292692 0.0139132 -7.30557e-12)
(0.027325 0.0137358 -7.2707e-12)
(0.025404 0.0135726 -7.2446e-12)
(0.0235044 0.0134228 -7.22211e-12)
(0.0216243 0.0132861 -7.21341e-12)
(0.0197619 0.0131619 -7.20548e-12)
(0.0179157 0.0130498 -7.21594e-12)
(0.0160839 0.0129493 -7.22509e-12)
(0.014265 0.0128602 -7.25706e-12)
(0.0124575 0.0127821 -7.28549e-12)
(0.0106599 0.0127147 -7.33974e-12)
(0.00887058 0.012658 -7.38425e-12)
(0.00708824 0.0126116 -7.45442e-12)
(0.0053114 0.0125755 -7.47763e-12)
(0.00353869 0.0125497 -7.51418e-12)
(0.00176889 0.0125341 -7.50419e-12)
(2.6772e-08 0.0125289 -7.43308e-12)
(-0.00176883 0.0125341 -7.95622e-12)
(-0.00353864 0.0125497 -3.91032e-12)
(-0.00531135 0.0125755 -1.60662e-11)
(-0.00708818 0.0126116 -7.24489e-12)
(0.0679988 0.306922 7.37547e-11)
(0.0814755 0.302179 5.9865e-11)
(0.0948413 0.296413 9.92046e-12)
(0.10803 0.289531 -4.46965e-12)
(0.120943 0.281418 -2.79252e-11)
(0.133434 0.271948 -4.13386e-11)
(0.145294 0.260994 -6.15205e-11)
(0.156234 0.248467 -7.07778e-11)
(0.165891 0.234383 -8.01177e-11)
(0.173853 0.218926 -8.19209e-11)
(0.179717 0.202496 -7.69155e-11)
(0.18325 0.185771 -7.21336e-11)
(0.184502 0.169462 -6.04041e-11)
(0.183752 0.154147 -5.43265e-11)
(0.181402 0.14016 -4.63884e-11)
(0.177873 0.127607 -4.35053e-11)
(0.173532 0.116449 -4.20659e-11)
(0.168667 0.106574 -4.22118e-11)
(0.163494 0.0978459 -4.30186e-11)
(0.158172 0.0901244 -4.33059e-11)
(0.152809 0.0832815 -4.24122e-11)
(0.147482 0.0772035 -4.1163e-11)
(0.142243 0.0717915 -3.80664e-11)
(0.137126 0.06696 -3.56649e-11)
(0.132153 0.0626355 -3.18011e-11)
(0.127335 0.0587543 -2.93165e-11)
(0.122679 0.0552618 -2.59812e-11)
(0.118186 0.0521105 -2.4042e-11)
(0.113855 0.0492597 -2.16791e-11)
(0.109681 0.0466741 -2.03393e-11)
(0.105659 0.0443231 -1.88122e-11)
(0.101782 0.0421804 -1.78733e-11)
(0.0980453 0.0402228 -1.68891e-11)
(0.0944403 0.0384306 -1.6159e-11)
(0.0909602 0.0367864 -1.5486e-11)
(0.0875982 0.0352748 -1.4859e-11)
(0.0843475 0.0338827 -1.4364e-11)
(0.0812015 0.0325985 -1.38011e-11)
(0.0781542 0.0314118 -1.34169e-11)
(0.0751996 0.0303136 -1.29097e-11)
(0.0723321 0.029296 -1.26019e-11)
(0.0695464 0.0283519 -1.21495e-11)
(0.0668376 0.0274749 -1.18974e-11)
(0.064201 0.0266595 -1.14984e-11)
(0.0616322 0.0259007 -1.12878e-11)
(0.0591271 0.0251941 -1.09386e-11)
(0.0566818 0.0245356 -1.07592e-11)
(0.0542926 0.0239216 -1.04555e-11)
(0.051956 0.0233489 -1.03005e-11)
(0.0496689 0.0228147 -1.00377e-11)
(0.0474281 0.0223162 -9.90252e-12)
(0.0452308 0.0218512 -9.6767e-12)
(0.0430743 0.0214174 -9.55863e-12)
(0.0409559 0.021013 -9.36643e-12)
(0.0388731 0.0206362 -9.26414e-12)
(0.0368237 0.0202853 -9.10283e-12)
(0.0348055 0.019959 -9.01583e-12)
(0.0328163 0.019656 -8.88337e-12)
(0.0308541 0.0193749 -8.81182e-12)
(0.0289169 0.0191148 -8.70683e-12)
(0.027003 0.0188747 -8.65144e-12)
(0.0251106 0.0186537 -8.57321e-12)
(0.0232379 0.018451 -8.53539e-12)
(0.0213832 0.0182659 -8.48422e-12)
(0.0195451 0.0180977 -8.46652e-12)
(0.017722 0.0179459 -8.4442e-12)
(0.0159123 0.0178098 -8.45123e-12)
(0.0141146 0.0176892 -8.46132e-12)
(0.0123275 0.0175835 -8.50195e-12)
(0.0105496 0.0174925 -8.54815e-12)
(0.00877954 0.0174158 -8.63432e-12)
(0.00701593 0.0173532 -8.71748e-12)
(0.00525747 0.0173046 -8.8142e-12)
(0.00350287 0.0172699 -8.91431e-12)
(0.00175101 0.017249 -8.95919e-12)
(2.61099e-08 0.017242 -8.8947e-12)
(-0.00175096 0.017249 -1.00922e-11)
(-0.00350282 0.0172699 -2.53484e-12)
(-0.00525742 0.0173046 -2.53772e-11)
(-0.00701588 0.0173532 -1.27981e-12)
(0.0578632 0.274 7.83702e-11)
(0.0690885 0.269708 6.588e-11)
(0.0800895 0.264569 2.51404e-11)
(0.0907954 0.258548 1.68419e-11)
(0.101116 0.251611 5.16288e-12)
(0.110936 0.243731 -7.04218e-13)
(0.120115 0.234893 -1.01039e-11)
(0.128479 0.225115 -1.40159e-11)
(0.135839 0.214471 -2.00427e-11)
(0.142001 0.203104 -2.14891e-11)
(0.1468 0.191245 -2.30086e-11)
(0.150153 0.179202 -2.23594e-11)
(0.152082 0.167298 -2.1191e-11)
(0.152711 0.15581 -2.01064e-11)
(0.152221 0.144934 -1.89187e-11)
(0.150817 0.134782 -1.85462e-11)
(0.148693 0.125395 -1.80135e-11)
(0.14602 0.116771 -1.80957e-11)
(0.14294 0.108878 -1.72963e-11)
(0.13957 0.101673 -1.7058e-11)
(0.136 0.0951046 -1.53725e-11)
(0.132303 0.0891212 -1.45825e-11)
(0.128535 0.0836714 -1.23354e-11)
(0.124739 0.0787062 -1.13423e-11)
(0.120948 0.07418 -9.21642e-12)
(0.117187 0.0700507 -8.42745e-12)
(0.113474 0.0662794 -6.8512e-12)
(0.109824 0.0628312 -6.41783e-12)
(0.106244 0.0596743 -5.44189e-12)
(0.102742 0.0567802 -5.29367e-12)
(0.0993217 0.0541231 -4.76457e-12)
(0.0959842 0.0516803 -4.7646e-12)
(0.0927306 0.0494311 -4.50312e-12)
(0.0895601 0.0473574 -4.54846e-12)
(0.0864716 0.0454427 -4.42823e-12)
(0.083463 0.0436725 -4.46922e-12)
(0.0805321 0.0420337 -4.41974e-12)
(0.0776761 0.0405148 -4.44256e-12)
(0.0748922 0.0391053 -4.42822e-12)
(0.0721775 0.0377959 -4.43431e-12)
(0.069529 0.0365782 -4.43722e-12)
(0.0669437 0.0354449 -4.4317e-12)
(0.0644187 0.0343891 -4.44181e-12)
(0.061951 0.0334048 -4.42957e-12)
(0.0595377 0.0324866 -4.44111e-12)
(0.0571761 0.0316296 -4.42528e-12)
(0.0548635 0.0308293 -4.43501e-12)
(0.0525974 0.0300817 -4.41822e-12)
(0.0503752 0.0293832 -4.42489e-12)
(0.0481945 0.0287305 -4.409e-12)
(0.046053 0.0281206 -4.41262e-12)
(0.0439486 0.0275509 -4.39925e-12)
(0.041879 0.0270188 -4.40076e-12)
(0.0398422 0.0265222 -4.39131e-12)
(0.0378363 0.0260589 -4.39209e-12)
(0.0358594 0.0256271 -4.38784e-12)
(0.0339097 0.0252252 -4.38955e-12)
(0.0319853 0.0248516 -4.39169e-12)
(0.0300847 0.0245049 -4.39608e-12)
(0.0282062 0.0241838 -4.40575e-12)
(0.0263482 0.0238872 -4.41467e-12)
(0.0245093 0.0236141 -4.43308e-12)
(0.0226878 0.0233635 -4.44863e-12)
(0.0208825 0.0231345 -4.47726e-12)
(0.019092 0.0229263 -4.50192e-12)
(0.0173147 0.0227384 -4.54285e-12)
(0.0155496 0.02257 -4.57913e-12)
(0.0137952 0.0224206 -4.63454e-12)
(0.0120503 0.0222898 -4.68312e-12)
(0.0103137 0.0221771 -4.75257e-12)
(0.00858408 0.0220822 -4.80543e-12)
(0.00686032 0.0220048 -4.87964e-12)
(0.00514119 0.0219447 -4.8983e-12)
(0.00342556 0.0219018 -4.93218e-12)
(0.0017124 0.0218761 -4.89579e-12)
(2.24407e-08 0.0218675 -4.84633e-12)
(-0.00171236 0.0218761 -5.13979e-12)
(-0.00342551 0.0219018 -2.48398e-12)
(-0.00514114 0.0219447 -1.03912e-11)
(-0.00686027 0.0220048 -5.06675e-12)
(0.0484623 0.24664 6.92432e-11)
(0.0577254 0.242951 5.51567e-11)
(0.0667334 0.238581 2.45502e-11)
(0.075425 0.233526 1.87491e-11)
(0.0837301 0.22779 1.16041e-11)
(0.0915685 0.221384 7.2352e-12)
(0.0988507 0.214331 1.05725e-12)
(0.10548 0.206675 -2.71741e-12)
(0.111358 0.198487 -8.14307e-12)
(0.116393 0.189866 -1.11129e-11)
(0.120517 0.180947 -1.48238e-11)
(0.123695 0.171887 -1.68675e-11)
(0.12594 0.162847 -1.89436e-11)
(0.127303 0.153974 -2.00405e-11)
(0.12787 0.145388 -2.07042e-11)
(0.127737 0.13717 -2.11455e-11)
(0.127008 0.129375 -2.07704e-11)
(0.125781 0.122031 -2.06306e-11)
(0.124144 0.115145 -1.94351e-11)
(0.122176 0.108716 -1.87906e-11)
(0.119946 0.102731 -1.70983e-11)
(0.117511 0.0971698 -1.61733e-11)
(0.114921 0.0920117 -1.44132e-11)
(0.112217 0.0872322 -1.34849e-11)
(0.109432 0.0828065 -1.20005e-11)
(0.106595 0.0787098 -1.12486e-11)
(0.103729 0.0749178 -1.01718e-11)
(0.100851 0.0714074 -9.63039e-12)
(0.0979771 0.0681565 -8.92566e-12)
(0.0951185 0.0651446 -8.5428e-12)
(0.0922845 0.0623524 -8.10564e-12)
(0.0894821 0.0597623 -7.81451e-12)
(0.0867167 0.0573578 -7.54518e-12)
(0.083992 0.055124 -7.30002e-12)
(0.0813108 0.0530471 -7.13049e-12)
(0.0786749 0.0511147 -6.91055e-12)
(0.0760852 0.0493152 -6.80099e-12)
(0.0735423 0.0476383 -6.59984e-12)
(0.071046 0.0460744 -6.52597e-12)
(0.0685958 0.044615 -6.34105e-12)
(0.066191 0.0432522 -6.28847e-12)
(0.0638306 0.0419788 -6.12062e-12)
(0.0615134 0.0407883 -6.08149e-12)
(0.0592381 0.0396748 -5.93085e-12)
(0.0570033 0.038633 -5.89941e-12)
(0.0548075 0.0376578 -5.76535e-12)
(0.0526492 0.0367448 -5.7381e-12)
(0.0505269 0.0358899 -5.61981e-12)
(0.048439 0.0350894 -5.59498e-12)
(0.0463841 0.0343399 -5.49173e-12)
(0.0443605 0.0336382 -5.46876e-12)
(0.0423667 0.0329815 -5.37993e-12)
(0.0404012 0.0323672 -5.35904e-12)
(0.0384627 0.031793 -5.2842e-12)
(0.0365496 0.0312566 -5.26609e-12)
(0.0346605 0.0307561 -5.20493e-12)
(0.032794 0.0302896 -5.19054e-12)
(0.0309489 0.0298555 -5.14288e-12)
(0.0291237 0.0294522 -5.13327e-12)
(0.0273172 0.0290785 -5.09898e-12)
(0.0255282 0.028733 -5.09528e-12)
(0.0237553 0.0284145 -5.07439e-12)
(0.0219975 0.028122 -5.07798e-12)
(0.0202534 0.0278547 -5.07093e-12)
(0.018522 0.0276116 -5.08382e-12)
(0.0168022 0.0273919 -5.09184e-12)
(0.0150927 0.0271951 -5.11735e-12)
(0.0133926 0.0270204 -5.14264e-12)
(0.0117007 0.0268674 -5.18672e-12)
(0.010016 0.0267355 -5.23107e-12)
(0.00833738 0.0266245 -5.30081e-12)
(0.00666385 0.026534 -5.36285e-12)
(0.00499435 0.0264638 -5.43157e-12)
(0.00332791 0.0264137 -5.49687e-12)
(0.00166364 0.0263836 -5.51323e-12)
(2.0892e-08 0.0263735 -5.46492e-12)
(-0.0016636 0.0263836 -6.27726e-12)
(-0.00332787 0.0264137 -1.09627e-12)
(-0.00499431 0.0264638 -1.67619e-11)
(-0.00666381 0.026534 1.63435e-13)
(0.0403987 0.224055 4.0231e-11)
(0.0480553 0.220981 3.61181e-11)
(0.0554713 0.217365 1.84886e-11)
(0.0625982 0.213217 1.67263e-11)
(0.0693845 0.208554 1.33277e-11)
(0.0757757 0.203399 1.18309e-11)
(0.0817156 0.197782 8.49272e-12)
(0.087148 0.191747 7.12256e-12)
(0.0920197 0.185349 3.88414e-12)
(0.0962852 0.178656 2.76881e-12)
(0.0999118 0.171749 2.41154e-13)
(0.102884 0.164718 -4.3161e-13)
(0.105207 0.157653 -1.88446e-12)
(0.106904 0.150641 -2.095e-12)
(0.108015 0.143755 -2.49096e-12)
(0.108591 0.137055 -2.35747e-12)
(0.108685 0.130586 -1.96736e-12)
(0.108356 0.124382 -1.63752e-12)
(0.107656 0.118462 -7.98269e-13)
(0.106639 0.112839 -4.23737e-13)
(0.105353 0.107517 5.26664e-13)
(0.103839 0.102494 8.13848e-13)
(0.102138 0.0977654 1.64909e-12)
(0.100282 0.0933213 1.75946e-12)
(0.0983017 0.0891511 2.31679e-12)
(0.0962228 0.0852423 2.25074e-12)
(0.0940674 0.0815815 2.54579e-12)
(0.0918543 0.0781549 2.35069e-12)
(0.0895996 0.0749489 2.43812e-12)
(0.0873169 0.0719499 2.17477e-12)
(0.0850175 0.0691445 2.13027e-12)
(0.0827108 0.0665203 1.85268e-12)
(0.0804046 0.0640651 1.74216e-12)
(0.0781054 0.0617676 1.48025e-12)
(0.0758181 0.059617 1.33148e-12)
(0.0735472 0.0576033 1.08795e-12)
(0.0712957 0.0557172 9.16204e-13)
(0.0690662 0.05395 6.94314e-13)
(0.0668606 0.0522935 5.31171e-13)
(0.0646804 0.0507404 3.54487e-13)
(0.0625265 0.0492837 2.14649e-13)
(0.0603995 0.047917 6.45116e-14)
(0.0582996 0.0466345 -6.74623e-14)
(0.0562269 0.0454307 -1.98723e-13)
(0.0541813 0.0443006 -3.16723e-13)
(0.0521623 0.0432396 -4.29706e-13)
(0.0501696 0.0422434 -5.32682e-13)
(0.0482025 0.0413081 -6.30094e-13)
(0.0462603 0.0404302 -7.19085e-13)
(0.0443423 0.0396062 -8.04123e-13)
(0.0424476 0.0388332 -8.80859e-13)
(0.0405755 0.0381084 -9.56202e-13)
(0.038725 0.0374291 -1.02261e-12)
(0.0368953 0.0367929 -1.09069e-12)
(0.0350853 0.0361978 -1.14883e-12)
(0.0332942 0.0356416 -1.21166e-12)
(0.031521 0.0351225 -1.26347e-12)
(0.0297647 0.0346388 -1.32285e-12)
(0.0280245 0.034189 -1.37013e-12)
(0.0262993 0.0337717 -1.42746e-12)
(0.0245883 0.0333854 -1.47179e-12)
(0.0228904 0.0330291 -1.52818e-12)
(0.0212048 0.0327016 -1.57109e-12)
(0.0195306 0.032402 -1.62766e-12)
(0.0178668 0.0321294 -1.67073e-12)
(0.0162125 0.031883 -1.72866e-12)
(0.0145669 0.031662 -1.77312e-12)
(0.012929 0.0314658 -1.83336e-12)
(0.011298 0.0312939 -1.8784e-12)
(0.00967291 0.0311458 -1.93988e-12)
(0.00805298 0.031021 -1.97739e-12)
(0.00643731 0.0309193 -2.03234e-12)
(0.00482502 0.0308404 -2.03755e-12)
(0.00321528 0.0307841 -2.05477e-12)
(0.00160739 0.0307503 -2.01966e-12)
(1.75733e-08 0.030739 -1.99591e-12)
(-0.00160736 0.0307503 -2.04698e-12)
(-0.00321525 0.0307841 -1.17491e-12)
(-0.00482498 0.0308404 -3.74464e-12)
(-0.00643727 0.0309193 -3.22722e-12)
(0.0336969 0.205303 4.16611e-11)
(0.0400603 0.202779 3.13546e-11)
(0.0462155 0.199822 1.84342e-11)
(0.0521254 0.196447 1.64702e-11)
(0.0577526 0.192674 1.40504e-11)
(0.0630594 0.188526 1.25608e-11)
(0.0680091 0.184031 1.01979e-11)
(0.0725672 0.179225 8.71598e-12)
(0.0767025 0.17415 6.38398e-12)
(0.0803895 0.168852 4.98765e-12)
(0.0836105 0.163384 3.06884e-12)
(0.0863566 0.157802 1.94516e-12)
(0.0886294 0.152164 7.1557e-13)
(0.0904403 0.146522 -6.30271e-14)
(0.0918089 0.140925 -6.05915e-13)
(0.0927617 0.135418 -1.05469e-12)
(0.093329 0.130035 -1.06567e-12)
(0.0935442 0.124804 -1.29872e-12)
(0.0934412 0.119749 -9.65423e-13)
(0.0930537 0.114883 -1.05665e-12)
(0.0924142 0.110218 -6.34485e-13)
(0.0915536 0.105761 -7.04495e-13)
(0.0905005 0.101513 -3.51127e-13)
(0.0892814 0.0974739 -4.46499e-13)
(0.0879202 0.0936411 -2.17557e-13)
(0.0864385 0.0900098 -3.39883e-13)
(0.0848556 0.0865741 -2.32371e-13)
(0.0831887 0.0833268 -3.70093e-13)
(0.0814529 0.0802604 -3.59135e-13)
(0.0796613 0.0773668 -4.99175e-13)
(0.0778256 0.0746378 -5.57516e-13)
(0.0759558 0.072065 -6.93344e-13)
(0.0740605 0.0696402 -7.94402e-13)
(0.0721471 0.0673554 -9.07313e-13)
(0.070222 0.0652028 -1.01252e-12)
(0.0682906 0.0631749 -1.09411e-12)
(0.0663574 0.0612645 -1.19708e-12)
(0.0644262 0.0594649 -1.25712e-12)
(0.0625002 0.0577696 -1.35755e-12)
(0.0605821 0.0561724 -1.40887e-12)
(0.0586739 0.0546678 -1.50592e-12)
(0.0567774 0.0532503 -1.54719e-12)
(0.054894 0.0519148 -1.63606e-12)
(0.0530247 0.0506567 -1.6692e-12)
(0.0511702 0.0494716 -1.74808e-12)
(0.0493311 0.0483554 -1.77477e-12)
(0.0475078 0.0473042 -1.84357e-12)
(0.0457005 0.0463145 -1.8663e-12)
(0.0439092 0.045383 -1.92533e-12)
(0.0421338 0.0445067 -1.94393e-12)
(0.0403741 0.0436827 -1.99492e-12)
(0.0386299 0.0429083 -2.01175e-12)
(0.0369007 0.0421811 -2.05572e-12)
(0.0351863 0.0414988 -2.07179e-12)
(0.0334862 0.0408594 -2.11016e-12)
(0.0317997 0.0402609 -2.12652e-12)
(0.0301265 0.0397014 -2.16068e-12)
(0.0284659 0.0391794 -2.17828e-12)
(0.0268173 0.0386933 -2.20964e-12)
(0.0251802 0.0382417 -2.22916e-12)
(0.0235538 0.0378233 -2.25859e-12)
(0.0219376 0.037437 -2.28012e-12)
(0.0203308 0.0370816 -2.3086e-12)
(0.0187329 0.0367561 -2.33283e-12)
(0.0171432 0.0364598 -2.36201e-12)
(0.0155609 0.0361917 -2.39009e-12)
(0.0139854 0.0359511 -2.42237e-12)
(0.0124161 0.0357375 -2.45577e-12)
(0.0108522 0.0355502 -2.49522e-12)
(0.00929303 0.0353888 -2.53527e-12)
(0.00773798 0.0352528 -2.58736e-12)
(0.00618632 0.0351419 -2.63373e-12)
(0.00463736 0.0350559 -2.68454e-12)
(0.00309046 0.0349945 -2.73242e-12)
(0.00154505 0.0349576 -2.7495e-12)
(1.62738e-08 0.0349454 -2.73492e-12)
(-0.00154502 0.0349576 -3.251e-12)
(-0.00309043 0.0349945 -1.49305e-13)
(-0.00463733 0.0350559 -9.54308e-12)
(-0.00618628 0.0351419 1.06146e-12)
(0.0282031 0.189663 1.54134e-11)
(0.0335269 0.187602 1.46515e-11)
(0.0386783 0.185195 8.98075e-12)
(0.043629 0.182455 9.19273e-12)
(0.0483513 0.1794 8.35993e-12)
(0.0528184 0.17605 8.28288e-12)
(0.0570052 0.17243 7.30125e-12)
(0.0608886 0.168566 7.18249e-12)
(0.0644488 0.16449 6.22534e-12)
(0.0676696 0.160235 6.16867e-12)
(0.0705398 0.155837 5.42989e-12)
(0.0730534 0.151335 5.48787e-12)
(0.0752099 0.146764 5.07745e-12)
(0.0770147 0.142163 5.23531e-12)
(0.0784779 0.137565 5.13643e-12)
(0.0796138 0.133002 5.33674e-12)
(0.0804401 0.1285 5.45039e-12)
(0.0809766 0.124083 5.62292e-12)
(0.0812445 0.11977 5.82552e-12)
(0.0812657 0.115577 5.91667e-12)
(0.0810623 0.111516 6.1012e-12)
(0.0806559 0.107596 6.0829e-12)
(0.0800671 0.103823 6.1875e-12)
(0.0793158 0.100201 6.06367e-12)
(0.0784205 0.0967305 6.07164e-12)
(0.0773984 0.0934127 5.86622e-12)
(0.0762653 0.0902458 5.78824e-12)
(0.0750358 0.0872273 5.53107e-12)
(0.0737229 0.0843537 5.38938e-12)
(0.0723387 0.0816209 5.10735e-12)
(0.0708938 0.0790244 4.92501e-12)
(0.0693976 0.0765592 4.63813e-12)
(0.0678587 0.0742203 4.43469e-12)
(0.0662846 0.0720023 4.15721e-12)
(0.0646818 0.0698999 3.94844e-12)
(0.0630563 0.067908 3.68872e-12)
(0.061413 0.0660213 3.48428e-12)
(0.0597564 0.0642348 3.24555e-12)
(0.0580905 0.0625436 3.05126e-12)
(0.0564183 0.0609431 2.83431e-12)
(0.0547429 0.0594287 2.65388e-12)
(0.0530667 0.0579962 2.4587e-12)
(0.0513916 0.0566413 2.29424e-12)
(0.0497196 0.0553603 2.11997e-12)
(0.0480519 0.0541495 1.97247e-12)
(0.0463898 0.0530053 1.8199e-12)
(0.0447343 0.0519246 1.69346e-12)
(0.0430862 0.0509041 1.53552e-12)
(0.0414461 0.0499411 1.42529e-12)
(0.0398143 0.0490328 1.30523e-12)
(0.0381914 0.0481767 1.20265e-12)
(0.0365773 0.0473703 1.09162e-12)
(0.0349723 0.0466115 1.00058e-12)
(0.0333764 0.0458982 9.00925e-13)
(0.0317896 0.0452285 8.21099e-13)
(0.0302116 0.0446005 7.3163e-13)
(0.0286423 0.0440125 6.62114e-13)
(0.0270815 0.0434631 5.81412e-13)
(0.0255289 0.0429508 5.16522e-13)
(0.0239842 0.0424742 4.37856e-13)
(0.0224471 0.0420322 3.79215e-13)
(0.0209171 0.0416235 3.10109e-13)
(0.0193939 0.0412472 2.61359e-13)
(0.0178771 0.0409024 2.00882e-13)
(0.0163661 0.040588 1.58218e-13)
(0.0148607 0.0403035 1.01279e-13)
(0.0133602 0.040048 6.17225e-14)
(0.0118642 0.039821 9.31982e-15)
(0.0103723 0.0396219 -2.40185e-14)
(0.00888396 0.0394502 -7.02872e-14)
(0.00739864 0.0393055 -9.05017e-14)
(0.00591586 0.0391875 -1.25237e-13)
(0.00443511 0.0390959 -1.19871e-13)
(0.0029559 0.0390306 -1.24803e-13)
(0.00147784 0.0389914 -9.69641e-14)
(1.34828e-08 0.0389783 -9.36992e-14)
(-0.00147782 0.0389914 9.52883e-15)
(-0.00295588 0.0390306 -3.26871e-13)
(-0.00443508 0.0390959 6.93798e-13)
(-0.00591583 0.0391875 -1.80299e-12)
(0.0237163 0.176531 1.79726e-11)
(0.0282002 0.17485 1.30058e-11)
(0.0325443 0.172888 9.11955e-12)
(0.0367269 0.170658 8.77224e-12)
(0.0407272 0.168175 8.25142e-12)
(0.0445255 0.165455 8.06773e-12)
(0.0481035 0.162516 7.50201e-12)
(0.0514451 0.159382 7.31513e-12)
(0.0545362 0.156073 6.76287e-12)
(0.0573657 0.152615 6.58403e-12)
(0.0599254 0.149034 6.13164e-12)
(0.0622104 0.145356 5.9805e-12)
(0.0642196 0.141607 5.67532e-12)
(0.0659548 0.137814 5.54757e-12)
(0.0674214 0.134002 5.3803e-12)
(0.0686272 0.130193 5.25718e-12)
(0.0695825 0.126408 5.1835e-12)
(0.0702994 0.122666 5.04375e-12)
(0.0707913 0.118984 5.00917e-12)
(0.0710726 0.115375 4.83794e-12)
(0.071158 0.11185 4.79772e-12)
(0.0710626 0.10842 4.59117e-12)
(0.0708012 0.105091 4.51962e-12)
(0.0703884 0.101869 4.28415e-12)
(0.069838 0.0987574 4.17386e-12)
(0.0691634 0.0957596 3.92159e-12)
(0.0683773 0.0928765 3.77709e-12)
(0.0674913 0.0901081 3.52091e-12)
(0.0665165 0.0874539 3.35197e-12)
(0.065463 0.0849123 3.10239e-12)
(0.0643401 0.0824816 2.91962e-12)
(0.0631563 0.080159 2.68384e-12)
(0.0619194 0.077942 2.49652e-12)
(0.0606364 0.0758273 2.27877e-12)
(0.0593137 0.0738116 2.09427e-12)
(0.0579569 0.0718917 1.89652e-12)
(0.0565712 0.0700639 1.72012e-12)
(0.0551611 0.0683249 1.54274e-12)
(0.0537307 0.0666711 1.37797e-12)
(0.0522836 0.065099 1.22037e-12)
(0.050823 0.0636054 1.06936e-12)
(0.0493517 0.0621868 9.30361e-13)
(0.0478721 0.0608402 7.94121e-13)
(0.0463865 0.0595625 6.72284e-13)
(0.0448967 0.0583507 5.51163e-13)