/*--------------------------------*- C++ -*----------------------------------*\
| =========                 |                                                 |
| \\      /  F ield         | OpenFOAM: The Open Source CFD Toolbox           |
|  \\    /   O peration     | Version:  2306                                  |
|   \\  /    A nd           | Website:  www.openfoam.com                      |
|    \\/     M anipulation  |                                                 |
\*---------------------------------------------------------------------------*/
FoamFile
{
    version     2.0;
    format      ascii;
    arch        "LSB;label=32;scalar=64";
    class       volScalarField;
    location    "25";
    object      p_rgh;
}
// * * * * * * * * * * * * * * * * * * * * * * * * * * * * * * * * * * * * * //

dimensions      [1 -1 -2 0 0 0 0];

internalField   nonuniform List<scalar> 
14400
(
-0.012243
-0.0122685
-0.0122986
-0.0123335
-0.0123732
-0.0124179
-0.0124678
-0.0125229
-0.0125836
-0.0126499
-0.0127223
-0.0128009
-0.012886
-0.0129781
-0.0130774
-0.0131844
-0.0132995
-0.0134233
-0.0135563
-0.0136991
-0.0138524
-0.014017
-0.0141937
-0.0143835
-0.0145873
-0.0148065
-0.0150421
-0.0152958
-0.0155692
-0.0158639
-0.0161822
-0.0165263
-0.0168989
-0.0173029
-0.0177416
-0.0182189
-0.0187393
-0.0193076
-0.0199296
-0.0206119
-0.0213621
-0.0221889
-0.0231024
-0.0241142
-0.0252378
-0.0264886
-0.0278848
-0.0294468
-0.0311986
-0.0331675
-0.0353854
-0.0378906
-0.0407313
-0.0439685
-0.0476917
-0.0521479
-0.0579006
-0.0644596
-0.0661286
-0.0535596
-0.0262419
0.00642036
0.00950783
0.00936169
0.00995883
0.0105182
0.0108938
0.0111622
0.0113645
0.011517
0.0116301
0.0117112
0.011766
0.0117984
0.011811
0.0118131
0.0118124
0.0118013
0.0117707
0.011718
-0.0114789
-0.0115004
-0.0115258
-0.0115551
-0.0115885
-0.011626
-0.0116678
-0.011714
-0.0117647
-0.0118202
-0.0118807
-0.0119463
-0.0120173
-0.012094
-0.0121766
-0.0122656
-0.0123611
-0.0124638
-0.0125739
-0.012692
-0.0128185
-0.0129542
-0.0130995
-0.0132553
-0.0134223
-0.0136014
-0.0137935
-0.0139998
-0.0142214
-0.0144596
-0.0147161
-0.0149924
-0.0152904
-0.0156123
-0.0159604
-0.0163375
-0.0167466
-0.0171911
-0.0176749
-0.0182025
-0.0187789
-0.0194097
-0.0201013
-0.020861
-0.0216968
-0.0226175
-0.0236332
-0.0247544
-0.0259926
-0.0273595
-0.0288668
-0.0305249
-0.0323414
-0.0343174
-0.0364426
-0.0386805
-0.0408789
-0.0426748
-0.0439565
-0.0445089
-0.039338
-0.0206945
-0.0111664
-0.00666057
-0.00369548
-0.00159642
-8.77043e-05
0.00103037
0.00187649
0.00252122
0.00301028
0.00337422
0.00363315
0.00379728
0.00386883
0.00388183
0.00387037
0.00380047
0.00363822
0.00338143
-0.0107701
-0.0107877
-0.0108084
-0.0108322
-0.0108592
-0.0108895
-0.0109233
-0.0109605
-0.0110013
-0.0110459
-0.0110944
-0.0111468
-0.0112036
-0.0112647
-0.0113304
-0.011401
-0.0114766
-0.0115576
-0.0116442
-0.0117369
-0.0118358
-0.0119414
-0.0120542
-0.0121745
-0.0123029
-0.0124398
-0.0125859
-0.0127417
-0.0129079
-0.0130853
-0.0132746
-0.0134765
-0.0136921
-0.0139221
-0.0141675
-0.0144293
-0.0147086
-0.0150062
-0.0153231
-0.0156603
-0.0160184
-0.0163981
-0.0167996
-0.0172229
-0.0176672
-0.018131
-0.0186118
-0.0191057
-0.0196065
-0.0201058
-0.0205912
-0.0210458
-0.0214462
-0.0217606
-0.0219455
-0.0219427
-0.0216665
-0.0209655
-0.019556
-0.0171394
-0.0139005
-0.0105807
-0.00842839
-0.00652578
-0.00483864
-0.00344164
-0.00228818
-0.00133127
-0.000543945
9.34673e-05
0.00059732
0.000980773
0.00125322
0.00141706
0.00147077
0.00147052
0.00147263
0.00142087
0.00125907
0.000988679
-0.0100661
-0.0100796
-0.0100954
-0.0101135
-0.010134
-0.0101569
-0.0101823
-0.0102103
-0.0102409
-0.0102742
-0.0103103
-0.0103493
-0.0103913
-0.0104363
-0.0104846
-0.0105362
-0.0105913
-0.01065
-0.0107125
-0.010779
-0.0108496
-0.0109244
-0.0110038
-0.0110879
-0.0111769
-0.0112711
-0.0113706
-0.0114757
-0.0115867
-0.0117037
-0.011827
-0.0119568
-0.0120933
-0.0122366
-0.0123868
-0.012544
-0.0127081
-0.012879
-0.0130562
-0.0132393
-0.0134273
-0.0136191
-0.0138131
-0.0140068
-0.0141972
-0.0143803
-0.0145508
-0.0147017
-0.0148243
-0.0149073
-0.0149367
-0.014895
-0.0147608
-0.0145083
-0.0141072
-0.0135234
-0.0127216
-0.0116642
-0.0103045
-0.00862009
-0.0067179
-0.00485716
-0.00326725
-0.0018799
-0.00069234
0.000308588
0.00115062
0.00185637
0.0024421
0.00292038
0.003301
0.00359144
0.00379674
0.00391687
0.00394985
0.003945
0.00395159
0.0039204
0.00380205
0.00359842
-0.00937705
-0.00938648
-0.00939744
-0.00940995
-0.00942401
-0.00943967
-0.00945693
-0.00947583
-0.0094964
-0.00951867
-0.00954268
-0.00956845
-0.00959602
-0.00962543
-0.00965671
-0.00968991
-0.00972505
-0.00976217
-0.0098013
-0.00984246
-0.00988569
-0.00993099
-0.00997836
-0.0100278
-0.0100793
-0.0101328
-0.0101882
-0.0102454
-0.0103043
-0.0103646
-0.0104262
-0.0104887
-0.0105517
-0.0106146
-0.0106768
-0.0107375
-0.0107957
-0.01085
-0.0108992
-0.0109411
-0.0109738
-0.0109944
-0.0109997
-0.0109861
-0.0109488
-0.0108828
-0.0107817
-0.0106384
-0.0104448
-0.0101915
-0.00986842
-0.00946427
-0.00896727
-0.0083655
-0.00764774
-0.00680478
-0.00583143
-0.00472929
-0.00351023
-0.00220171
-0.000853599
0.000459013
0.00165586
0.00272126
0.00365431
0.00446121
0.0051518
0.00573636
0.0062243
0.0066239
0.00694213
0.00718479
0.00735619
0.00745715
0.00748734
0.00748527
0.0074886
0.00745971
0.00736006
0.00718991
-0.00871175
-0.00871733
-0.00872371
-0.00873089
-0.00873886
-0.00874763
-0.00875718
-0.00876751
-0.00877863
-0.00879051
-0.00880314
-0.00881651
-0.00883059
-0.00884537
-0.00886081
-0.00887687
-0.0088935
-0.00891065
-0.00892824
-0.00894621
-0.00896444
-0.00898283
-0.00900123
-0.00901948
-0.0090374
-0.00905474
-0.00907124
-0.00908659
-0.00910042
-0.00911229
-0.00912169
-0.00912804
-0.00913063
-0.00912866
-0.0091212
-0.00910715
-0.00908524
-0.00905403
-0.0090118
-0.00895663
-0.00888627
-0.00879818
-0.00868943
-0.00855673
-0.00839635
-0.00820413
-0.00797545
-0.00770525
-0.00738809
-0.00701818
-0.00658961
-0.00609651
-0.00553345
-0.0048959
-0.00418093
-0.00338802
-0.00252017
-0.00158503
-0.000596192
0.000425535
0.00145206
0.00245048
0.00339021
0.00425544
0.00503826
0.00573584
0.00634887
0.00687997
0.00733264
0.00771056
0.00801727
0.00825603
0.00842944
0.0085379
0.00858124
0.00858702
0.00858208
0.0085396
0.00843204
0.00825955
-0.00806943
-0.00807142
-0.00807354
-0.00807577
-0.00807809
-0.00808047
-0.00808289
-0.00808532
-0.00808772
-0.00809004
-0.00809224
-0.00809426
-0.00809604
-0.0080975
-0.00809855
-0.00809911
-0.00809906
-0.00809828
-0.00809663
-0.00809395
-0.00809005
-0.00808473
-0.00807776
-0.00806887
-0.00805775
-0.00804407
-0.00802743
-0.00800739
-0.00798346
-0.00795506
-0.00792155
-0.0078822
-0.00783619
-0.0077826
-0.00772036
-0.00764831
-0.00756511
-0.00746929
-0.00735918
-0.00723295
-0.00708855
-0.00692374
-0.00673608
-0.00652291
-0.00628138
-0.00600849
-0.0057011
-0.00535601
-0.00497008
-0.00454031
-0.00406402
-0.00353909
-0.00296419
-0.00233911
-0.00166513
-0.000945383
-0.000185305
0.000607099
0.00142106
0.00224312
0.00305764
0.0038482
0.00460004
0.00530257
0.00594871
0.00653422
0.00705712
0.00751699
0.00791437
0.00825042
0.00852658
0.00874441
0.00890531
0.00900936
0.00905647
0.00906609
0.00905709
0.00901062
0.00890726
0.00874711
-0.00745543
-0.00745418
-0.00745246
-0.00745024
-0.00744747
-0.00744413
-0.00744017
-0.00743553
-0.00743016
-0.00742399
-0.00741695
-0.00740894
-0.00739987
-0.00738964
-0.00737812
-0.00736518
-0.00735067
-0.00733443
-0.00731625
-0.00729595
-0.00727328
-0.00724799
-0.00721978
-0.00718835
-0.00715334
-0.00711434
-0.00707093
-0.00702261
-0.00696884
-0.00690903
-0.00684251
-0.00676854
-0.00668633
-0.00659497
-0.00649349
-0.00638082
-0.00625578
-0.0061171
-0.0059634
-0.0057932
-0.00560492
-0.00539686
-0.00516726
-0.00491429
-0.00463607
-0.00433074
-0.00399645
-0.00363149
-0.00323433
-0.00280371
-0.0023388
-0.00183928
-0.00130557
-0.000738903
-0.000141587
0.000482895
0.00112973
0.00179275
0.00246443
0.00313614
0.00379852
0.00444212
0.00505822
0.00563959
0.00618061
0.00667712
0.00712628
0.00752633
0.00787628
0.00817578
0.00842484
0.00862382
0.00877313
0.00887244
0.00892146
0.00893362
0.008922
0.00887354
0.00877483
0.00862621
-0.00687091
-0.00686681
-0.00686171
-0.00685558
-0.00684837
-0.00684003
-0.00683051
-0.00681973
-0.00680764
-0.00679413
-0.00677912
-0.0067625
-0.00674417
-0.00672399
-0.00670181
-0.00667749
-0.00665085
-0.0066217
-0.00658983
-0.00655502
-0.00651699
-0.00647549
-0.0064302
-0.00638079
-0.00632689
-0.0062681
-0.00620398
-0.00613405
-0.00605778
-0.00597462
-0.00588393
-0.00578506
-0.00567726
-0.00555977
-0.00543173
-0.00529226
-0.00514038
-0.00497509
-0.00479532
-0.00459995
-0.00438783
-0.00415778
-0.00390862
-0.00363918
-0.00334834
-0.00303505
-0.00269838
-0.00233759
-0.00195215
-0.00154183
-0.0011068
-0.000647654
-0.00016553
0.000337822
0.000859973
0.00139777
0.0019473
0.00250396
0.00306248
0.00361713
0.00416191
0.00469086
0.00519835
0.00567944
0.0061299
0.00654629
0.00692593
0.00726679
0.0075674
0.00782678
0.0080443
0.00821963
0.00835264
0.00844276
0.00848958
0.00850234
0.00849011
0.00844382
0.00835427
0.0082219
-0.00631785
-0.00631131
-0.00630333
-0.00629387
-0.00628288
-0.00627031
-0.00625609
-0.00624015
-0.00622241
-0.00620277
-0.00618113
-0.00615738
-0.00613139
-0.00610303
-0.00607215
-0.00603859
-0.00600216
-0.00596266
-0.00591989
-0.00587361
-0.00582357
-0.00576949
-0.00571107
-0.00564799
-0.00557991
-0.00550644
-0.00542718
-0.00534169
-0.0052495
-0.00515012
-0.00504299
-0.00492755
-0.0048032
-0.00466929
-0.00452515
-0.00437007
-0.00420333
-0.00402417
-0.00383182
-0.00362551
-0.00340446
-0.00316793
-0.00291519
-0.00264558
-0.00235851
-0.00205352
-0.00173026
-0.00138857
-0.00102849
-0.00065034
-0.000254707
0.000157466
0.000584862
0.00102575
0.00147797
0.00193892
0.00240557
0.00287449
0.00334194
0.00380393
0.00425637
0.00469522
0.00511659
0.00551692
0.00589303
0.00624217
0.00656202
0.00685069
0.00710666
0.00732875
0.00751608
0.00766806
0.00778424
0.007864
0.00790687
0.00791922
0.00790737
0.00786502
0.0077858
0.0076702
-0.00579706
-0.00578849
-0.00577813
-0.00576593
-0.00575185
-0.00573581
-0.00571776
-0.00569762
-0.0056753
-0.00565071
-0.00562374
-0.00559429
-0.00556223
-0.00552742
-0.00548971
-0.00544894
-0.00540494
-0.00535751
-0.00530645
-0.00525155
-0.00519255
-0.00512921
-0.00506126
-0.00498839
-0.0049103
-0.00482665
-0.00473708
-0.00464123
-0.00453868
-0.00442902
-0.00431182
-0.0041866
-0.00405288
-0.00391018
-0.00375798
-0.00359576
-0.003423
-0.00323916
-0.00304374
-0.00283623
-0.00261616
-0.00238309
-0.00213665
-0.00187653
-0.00160249
-0.00131444
-0.00101237
-0.000696462
-0.00036706
-2.4707e-05
0.000329826
0.000695524
0.00107111
0.00145504
0.00184548
0.00224035
0.00263728
0.00303372
0.00342691
0.00381399
0.00419205
0.0045582
0.00490963
0.00524374
0.0055581
0.00585056
0.0061192
0.0063624
0.00657878
0.0067672
0.00692676
0.00705677
0.00715671
0.00722595
0.00726404
0.00727542
0.00726452
0.00722691
0.00715817
0.00705876
-0.00530896
-0.00529878
-0.00528652
-0.00527215
-0.00525562
-0.00523685
-0.0052158
-0.00519237
-0.0051665
-0.00513809
-0.00510704
-0.00507324
-0.00503657
-0.00499691
-0.0049541
-0.00490801
-0.00485847
-0.0048053
-0.00474832
-0.00468733
-0.00462211
-0.00455244
-0.00447807
-0.00439876
-0.00431424
-0.00422421
-0.00412839
-0.00402647
-0.00391811
-0.003803
-0.00368077
-0.00355108
-0.00341357
-0.00326786
-0.0031136
-0.00295043
-0.00277798
-0.00259592
-0.00240392
-0.00220171
-0.00198903
-0.00176566
-0.00153147
-0.00128637
-0.00103037
-0.000763564
-0.000486177
-0.000198539
9.88708e-05
0.000405424
0.000720326
0.00104261
0.00137113
0.00170456
0.00204138
0.00237993
0.00271837
0.00305475
0.003387
0.00371299
0.00403058
0.00433763
0.00463206
0.0049119
0.0051753
0.00542055
0.00564614
0.00585069
0.00603304
0.00619218
0.00632728
0.00643769
0.0065229
0.00658232
0.00661556
0.00662574
0.006616
0.00658319
0.00652422
0.00643948
-0.00485343
-0.00484202
-0.00482833
-0.00481232
-0.00479393
-0.00477313
-0.00474984
-0.00472399
-0.00469551
-0.00466431
-0.0046303
-0.00459339
-0.00455345
-0.00451037
-0.00446403
-0.00441429
-0.00436101
-0.00430402
-0.00424318
-0.0041783
-0.0041092
-0.00403568
-0.00395756
-0.0038746
-0.0037866
-0.00369332
-0.00359452
-0.00348997
-0.0033794
-0.00326257
-0.00313921
-0.00300907
-0.00287189
-0.00272741
-0.00257539
-0.00241559
-0.0022478
-0.00207182
-0.00188747
-0.00169463
-0.00149319
-0.0012831
-0.00106436
-0.000837043
-0.000601291
-0.000357322
-0.000105449
0.000153918
0.000420262
0.000692951
0.000971234
0.00125424
0.00154097
0.00183031
0.00212102
0.00241176
0.00270109
0.00298749
0.00326938
0.00354514
0.00381315
0.00407179
0.00431948
0.00455471
0.00477604
0.00498215
0.0051718
0.00534391
0.00549748
0.00563167
0.00574578
0.00583922
0.00591151
0.00596219
0.00599088
0.00599982
0.00599127
0.00596295
0.00591267
0.00584078
-0.00442995
-0.00441766
-0.00440294
-0.00438577
-0.0043661
-0.00434387
-0.00431904
-0.00429154
-0.00426129
-0.00422823
-0.00419227
-0.00415332
-0.00411128
-0.00406606
-0.00401754
-0.0039656
-0.00391012
-0.00385096
-0.003788
-0.00372108
-0.00365005
-0.00357476
-0.00349503
-0.0034107
-0.0033216
-0.00322754
-0.00312834
-0.00302382
-0.00291379
-0.00279806
-0.00267646
-0.00254879
-0.0024149
-0.00227462
-0.00212779
-0.00197428
-0.00181398
-0.00164679
-0.00147264
-0.00129152
-0.00110341
-0.000908385
-0.000706525
-0.00049799
-0.000282992
-6.18129e-05
0.000165197
0.000397609
0.000634915
0.000876521
0.00112175
0.00136983
0.00161992
0.00187108
0.0021223
0.00237249
0.00262051
0.00286517
0.00310524
0.00333946
0.00356659
0.00378536
0.00399458
0.00419305
0.00437966
0.00455336
0.00471317
0.00485822
0.0049877
0.00510091
0.00519726
0.00527626
0.0053375
0.00538059
0.00540522
0.00541298
0.00540554
0.00538124
0.00533849
0.00527759
-0.00403763
-0.00402477
-0.0040094
-0.0039915
-0.00397102
-0.00394793
-0.00392216
-0.00389368
-0.0038624
-0.00382828
-0.00379123
-0.00375119
-0.00370806
-0.00366177
-0.00361221
-0.00355929
-0.00350291
-0.00344295
-0.00337931
-0.00331186
-0.00324049
-0.00316507
-0.00308547
-0.00300156
-0.0029132
-0.00282027
-0.00272262
-0.00262013
-0.00251266
-0.00240009
-0.0022823
-0.00215917
-0.0020306
-0.00189649
-0.00175677
-0.00161138
-0.00146027
-0.00130343
-0.00114086
-0.000972613
-0.000798752
-0.000619392
-0.000434685
-0.00024483
-5.00759e-05
0.000149277
0.000352872
0.000560293
0.000771065
0.00098465
0.00120045
0.00141779
0.00163597
0.0018542
0.00207164
0.00228743
0.00250064
0.00271032
0.00291551
0.00311521
0.00330845
0.00349426
0.00367167
0.00383977
0.00399767
0.00414455
0.00427962
0.00440218
0.00451159
0.00460728
0.00468876
0.00475561
0.00480751
0.00484412
0.0048652
0.00487192
0.00486548
0.00484467
0.00480834
0.00475673
-0.00367532
-0.00366216
-0.00364646
-0.0036282
-0.00360734
-0.00358385
-0.00355767
-0.00352878
-0.0034971
-0.0034626
-0.0034252
-0.00338485
-0.00334147
-0.003295
-0.00324535
-0.00319245
-0.00313622
-0.00307656
-0.0030134
-0.00294663
-0.00287616
-0.0028019
-0.00272376
-0.00264163
-0.00255542
-0.00246503
-0.00237037
-0.00227136
-0.0021679
-0.00205991
-0.00194734
-0.0018301
-0.00170816
-0.00158147
-0.00145
-0.00131375
-0.00117274
-0.00102699
-0.000876558
-0.000721535
-0.000562033
-0.000398198
-0.000230211
-5.82912e-05
0.000117304
0.000296276
0.000478281
0.000662932
0.000849796
0.00103839
0.00122821
0.00141866
0.00160915
0.00179902
0.00198759
0.00217414
0.00235794
0.00253821
0.00271419
0.00288509
0.00305013
0.00320855
0.00335958
0.0035025
0.00363662
0.00376126
0.00387582
0.00397972
0.00407244
0.00415354
0.0042226
0.0042793
0.00432335
0.0043545
0.00437254
0.00437833
0.00437277
0.00435495
0.00432404
0.00428022
-0.00334165
-0.00332842
-0.00331267
-0.00329436
-0.00327348
-0.00324998
-0.00322384
-0.00319501
-0.00316346
-0.00312913
-0.00309199
-0.00305197
-0.00300903
-0.0029631
-0.00291412
-0.00286205
-0.0028068
-0.00274831
-0.00268652
-0.00262135
-0.00255275
-0.00248063
-0.00240494
-0.0023256
-0.00224254
-0.00215572
-0.00206505
-0.00197051
-0.00187202
-0.00176956
-0.00166309
-0.00155259
-0.00143804
-0.00131944
-0.00119681
-0.00107017
-0.00093958
-0.000805099
-0.000666817
-0.000524846
-0.000379322
-0.000230408
-7.82964e-05
7.6792e-05
0.000234604
0.000394853
0.000557222
0.000721357
0.000886871
0.00105334
0.00122032
0.00138732
0.00155382
0.00171929
0.00188316
0.00204483
0.0022037
0.00235917
0.0025106
0.00265736
0.00279884
0.00293441
0.00306349
0.00318547
0.00329982
0.00340599
0.0035035
0.00359189
0.00367075
0.00373969
0.00379841
0.00384663
0.00388412
0.00391068
0.00392613
0.00393112
0.00392632
0.00391105
0.00388469
0.00384739
-0.00303515
-0.00302204
-0.00300645
-0.00298836
-0.00296773
-0.00294456
-0.0029188
-0.00289044
-0.00285943
-0.00282573
-0.00278932
-0.00275015
-0.00270818
-0.00266337
-0.00261566
-0.00256502
-0.0025114
-0.00245474
-0.002395
-0.00233214
-0.0022661
-0.00219683
-0.0021243
-0.00204845
-0.00196926
-0.00188668
-0.00180068
-0.00171124
-0.00161833
-0.00152195
-0.00142209
-0.00131875
-0.00121196
-0.00110173
-0.000988104
-0.000871145
-0.00075092
-0.000627515
-0.000501037
-0.000371611
-0.000239383
-0.000104522
3.27815e-05
0.000172312
0.000313829
0.000457069
0.000601739
0.000747523
0.00089408
0.00104104
0.00118802
0.00133459
0.00148034
0.00162479
0.00176749
0.00190794
0.00204565
0.00218012
0.00231084
0.0024373
0.002559
0.00267545
0.00278617
0.00289068
0.00298853
0.00307932
0.00316263
0.0032381
0.00330541
0.00336424
0.00341433
0.00345547
0.00348748
0.00351018
0.00352344
0.00352774
0.00352359
0.00351048
0.00348793
0.00345608
-0.00275421
-0.00274138
-0.00272614
-0.00270846
-0.00268834
-0.00266574
-0.00264066
-0.00261306
-0.00258292
-0.00255021
-0.00251491
-0.00247699
-0.00243641
-0.00239314
-0.00234715
-0.00229841
-0.00224688
-0.00219254
-0.00213535
-0.00207527
-0.00201228
-0.00194636
-0.00187747
-0.00180559
-0.0017307
-0.0016528
-0.00157186
-0.00148789
-0.00140088
-0.00131085
-0.0012178
-0.00112178
-0.00102281
-0.000920937
-0.000816222
-0.000708735
-0.00059856
-0.000485796
-0.000370557
-0.000252975
-0.000133195
-1.13854e-05
0.000112271
0.000237571
0.000364291
0.00049219
0.000621005
0.000750455
0.000880239
0.00101004
0.00113952
0.00126832
0.00139609
0.00152243
0.00164695
0.00176926
0.00188894
0.00200558
0.00211877
0.0022281
0.00233314
0.00243352
0.00252883
0.00261869
0.00270275
0.00278066
0.00285211
0.00291679
0.00297445
0.00302483
0.00306772
0.00310295
0.00313036
0.00314983
0.00316124
0.00316495
0.00316136
0.00315007
0.00313072
0.00310343
-0.00249722
-0.00248479
-0.00247004
-0.00245294
-0.00243349
-0.00241168
-0.00238748
-0.00236088
-0.00233187
-0.00230041
-0.0022665
-0.00223012
-0.00219123
-0.00214982
-0.00210587
-0.00205936
-0.00201027
-0.00195857
-0.00190426
-0.0018473
-0.00178769
-0.00172541
-0.00166046
-0.00159282
-0.0015225
-0.00144949
-0.00137381
-0.00129546
-0.00121445
-0.00113083
-0.00104461
-0.000955832
-0.000864555
-0.000770833
-0.000674734
-0.000576339
-0.000475737
-0.000373034
-0.000268345
-0.000161801
-5.3546e-05
5.6262e-05
0.000167449
0.000279828
0.000393193
0.000507327
0.000621996
0.00073695
0.000851928
0.000966652
0.00108083
0.00119417
0.00130635
0.00141705
0.00152595
0.00163271
0.00173699
0.00183844
0.00193674
0.00203154
0.0021225
0.00220931
0.00229164
0.00236918
0.00244165
0.00250876
0.00257025
0.00262589
0.00267546
0.00271876
0.00275562
0.00278589
0.00280945
0.0028262
0.00283604
0.00283925
0.00283613
0.00282639
0.00280974
0.00278627
-0.00226254
-0.0022506
-0.00223644
-0.00222005
-0.00220141
-0.00218052
-0.00215737
-0.00213195
-0.00210424
-0.00207423
-0.00204191
-0.00200727
-0.00197029
-0.00193096
-0.00188927
-0.00184521
-0.00179877
-0.00174993
-0.00169869
-0.00164505
-0.001589
-0.00153055
-0.00146968
-0.00140641
-0.00134075
-0.00127272
-0.00120232
-0.00112958
-0.00105454
-0.00097722
-0.000897673
-0.000815945
-0.000732093
-0.000646183
-0.000558289
-0.000468496
-0.000376897
-0.000283596
-0.000188708
-9.23577e-05
5.31634e-06
0.000104166
0.00020403
0.000304736
0.0004061
0.000507926
0.000610006
0.000712121
0.000814041
0.000915528
0.00101633
0.00111619
0.00121485
0.00131203
0.00140746
0.00150085
0.00159193
0.00168042
0.00176602
0.00184846
0.00192747
0.00200278
0.00207413
0.00214127
0.00220395
0.00226196
0.00231507
0.0023631
0.00240587
0.00244322
0.002475
0.0025011
0.00252143
0.00253588
0.00254439
0.00254718
0.00254447
0.00253603
0.00252165
0.0025014
-0.00204857
-0.00203719
-0.0020237
-0.00200809
-0.00199036
-0.00197051
-0.00194851
-0.00192438
-0.0018981
-0.00186966
-0.00183907
-0.0018063
-0.00177136
-0.00173425
-0.00169495
-0.00165347
-0.00160979
-0.00156393
-0.00151588
-0.00146565
-0.00141324
-0.00135866
-0.00130192
-0.00124303
-0.00118202
-0.00111891
-0.00105372
-0.000986482
-0.000917239
-0.000846031
-0.000772907
-0.000697921
-0.000621136
-0.00054262
-0.000462451
-0.000380712
-0.000297497
-0.000212907
-0.000127052
-4.00525e-05
4.7964e-05
0.000136859
0.000226486
0.000316688
0.000407299
0.000498143
0.000589039
0.000679792
0.000770204
0.000860066
0.000949164
0.00103728
0.00112418
0.00120964
0.00129344
0.00137532
0.00145506
0.00153241
0.00160716
0.00167906
0.00174788
0.00181341
0.00187544
0.00193375
0.00198815
0.00203845
0.00208448
0.00212608
0.00216311
0.00219543
0.00222293
0.00224552
0.0022631
0.00227562
0.002283
0.00228543
0.00228306
0.00227573
0.00226327
0.00224575
-0.00185375
-0.00184297
-0.0018302
-0.00181543
-0.00179867
-0.00177991
-0.00175914
-0.00173637
-0.00171159
-0.00168481
-0.00165601
-0.0016252
-0.00159238
-0.00155754
-0.0015207
-0.00148185
-0.00144099
-0.00139815
-0.00135331
-0.00130649
-0.00125771
-0.00120698
-0.00115431
-0.00109974
-0.00104328
-0.000984963
-0.000924822
-0.000862894
-0.000799221
-0.000733849
-0.000666832
-0.000598226
-0.000528096
-0.000456511
-0.000383549
-0.00030929
-0.000233827
-0.000157256
-7.96803e-05
-1.21265e-06
7.80282e-05
0.000157916
0.000238316
0.000319088
0.000400083
0.000481145
0.000562113
0.000642817
0.000723083
0.000802732
0.000881578
0.000959433
0.0010361
0.00111139
0.00118511
0.00125704
0.00132701
0.0013948
0.00146023
0.00152309
0.00158321
0.00164039
0.00169446
0.00174526
0.00179261
0.00183637
0.00187639
0.00191254
0.0019447
0.00197276
0.00199663
0.00201624
0.0020315
0.00204237
0.0020488
0.00205091
0.00204884
0.00204246
0.00203163
0.00201641
-0.00167657
-0.00166642
-0.0016544
-0.0016405
-0.00162474
-0.00160711
-0.00158761
-0.00156623
-0.001543
-0.00151789
-0.00149092
-0.00146209
-0.00143141
-0.00139887
-0.00136449
-0.00132827
-0.00129023
-0.00125036
-0.0012087
-0.00116525
-0.00112003
-0.00107306
-0.00102436
-0.000973967
-0.000921899
-0.000868194
-0.000812886
-0.000756018
-0.000697633
-0.00063778
-0.000576514
-0.000513892
-0.000449979
-0.000384843
-0.000318559
-0.000251206
-0.00018287
-0.000113643
-4.3622e-05
2.70896e-05
9.83824e-05
0.000170141
0.000242245
0.000314566
0.000386973
0.000459327
0.000531486
0.000603301
0.000674621
0.000745289
0.000815146
0.000884029
0.000951773
0.00101821
0.00108318
0.0011465
0.00120802
0.00126756
0.00132496
0.00138006
0.0014327
0.00148273
0.00153
0.00157437
0.00161571
0.00165388
0.00168878
0.00172028
0.0017483
0.00177274
0.00179353
0.0018106
0.00182389
0.00183336
0.00183897
0.00184081
0.001839
0.00183342
0.00182398
0.00181072
-0.00151561
-0.00150609
-0.00149483
-0.00148182
-0.00146707
-0.00145057
-0.00143234
-0.00141238
-0.00139068
-0.00136726
-0.00134211
-0.00131525
-0.00128669
-0.00125642
-0.00122447
-0.00119084
-0.00115555
-0.00111861
-0.00108004
-0.00103985
-0.000998079
-0.000954738
-0.000909855
-0.00086346
-0.000815586
-0.000766267
-0.000715542
-0.000663454
-0.000610047
-0.000555371
-0.000499481
-0.000442433
-0.000384291
-0.00032512
-0.000264992
-0.000203983
-0.000142172
-7.96466e-05
-1.64955e-05
4.71858e-05
0.000111298
0.000175735
0.00024039
0.000305147
0.00036989
0.000434495
0.000498837
0.000562787
0.000626211
0.000688974
0.000750938
0.000811963
0.000871907
0.000930627
0.00098798
0.00104382
0.00109802
0.00115042
0.00120089
0.00124929
0.0012955
0.00133938
0.00138081
0.00141967
0.00145585
0.00148924
0.00151975
0.00154729
0.00157176
0.00159311
0.00161126
0.00162617
0.00163777
0.00164604
0.00165095
0.00165257
0.00165097
0.00164609
0.00163784
0.00162625
-0.0013695
-0.00136062
-0.00135012
-0.00133799
-0.00132424
-0.00130888
-0.00129191
-0.00127333
-0.00125315
-0.00123138
-0.00120803
-0.0011831
-0.00115661
-0.00112856
-0.00109897
-0.00106785
-0.00103522
-0.0010011
-0.000965509
-0.000928462
-0.000889987
-0.000850109
-0.000808857
-0.00076626
-0.000722354
-0.000677174
-0.00063076
-0.000583153
-0.000534401
-0.00048455
-0.000433655
-0.000381772
-0.000328958
-0.00027528
-0.000220803
-0.000165599
-0.000109742
-5.33131e-05
3.60629e-06
6.09289e-05
0.000118564
0.000176417
0.000234391
0.000292382
0.000350288
0.000407998
0.000465403
0.000522389
0.000578839
0.000634636
0.00068966
0.00074379
0.000796904
0.000848879
0.000899594
0.000948926
0.000996755
0.00104296
0.00108743
0.00113004
0.00117068
0.00120926
0.00124565
0.00127977
0.00131151
0.0013408
0.00136754
0.00139167
0.00141311
0.0014318
0.0014477
0.00146074
0.0014709
0.00147815
0.00148245
0.00148387
0.00148246
0.00147818
0.00147095
0.0014608
-0.001237
-0.00122874
-0.00121898
-0.00120772
-0.00119495
-0.0011807
-0.00116495
-0.00114773
-0.00112903
-0.00110887
-0.00108725
-0.00106419
-0.0010397
-0.00101379
-0.00098647
-0.000957766
-0.000927692
-0.000896267
-0.000863512
-0.00082945
-0.000794107
-0.000757508
-0.000719684
-0.000680666
-0.000640489
-0.000599187
-0.000556802
-0.000513374
-0.000468948
-0.000423572
-0.000377296
-0.000330174
-0.000282263
-0.000233623
-0.000184316
-0.000134409
-8.3971e-05
-3.30753e-05
1.82024e-05
6.9783e-05
0.000121585
0.000173522
0.000225507
0.000277449
0.000329255
0.00038083
0.000432074
0.000482889
0.000533174
0.000582824
0.000631737
0.000679808
0.00072693
0.000772999
0.000817911
0.00086156
0.000903843
0.000944659
0.000983909
0.00102149
0.00105732
0.0010913
0.00112333
0.00115335
0.00118127
0.00120701
0.00123051
0.0012517
0.00127053
0.00128694
0.00130089
0.00131234
0.00132125
0.00132761
0.00133139
0.00133264
0.0013314
0.00132763
0.00132128
0.00131237
-0.00111691
-0.00110926
-0.00110022
-0.00108979
-0.00107798
-0.00106479
-0.00105023
-0.00103431
-0.00101704
-0.000998421
-0.000978472
-0.000957203
-0.000934626
-0.000910756
-0.000885609
-0.000859202
-0.000831554
-0.000802685
-0.000772617
-0.000741374
-0.000708982
-0.000675468
-0.000640861
-0.000605193
-0.000568498
-0.000530812
-0.000492172
-0.00045262
-0.000412199
-0.000370954
-0.000328933
-0.000286188
-0.000242771
-0.000198738
-0.000154148
-0.000109063
-6.35464e-05
-1.76645e-05
2.85131e-05
7.49149e-05
0.000121467
0.000168092
0.000214712
0.000261245
0.00030761
0.000353721
0.000399492
0.000444835
0.000489662
0.000533882
0.000577406
0.000620142
0.000661999
0.000702886
0.000742713
0.00078139
0.000818829
0.000854943
0.000889646
0.000922857
0.000954494
0.00098448
0.00101274
0.0010392
0.00106381
0.00108648
0.00110717
0.00112583
0.00114239
0.00115683
0.0011691
0.00117917
0.00118702
0.00119261
0.00119594
0.00119704
0.00119594
0.00119262
0.00118703
0.00117919
-0.00100814
-0.00100107
-0.000992722
-0.000983096
-0.000972197
-0.000960032
-0.00094661
-0.000931937
-0.000916024
-0.000898882
-0.000880521
-0.000860955
-0.000840197
-0.000818263
-0.000795169
-0.000770933
-0.000745574
-0.000719113
-0.000691572
-0.000662975
-0.000633348
-0.000602717
-0.000571113
-0.000538565
-0.000505108
-0.000470775
-0.000435604
-0.000399634
-0.000362905
-0.000325461
-0.000287347
-0.000248611
-0.000209303
-0.000169475
-0.00012918
-8.84762e-05
-4.74213e-05
-6.07618e-06
3.54962e-05
7.72309e-05
0.000119061
0.000160918
0.000202732
0.00024443
0.000285938
0.000327182
0.000368086
0.000408572
0.000448563
0.00048798
0.000526744
0.000564775
0.000601996
0.000638327
0.00067369
0.000708008
0.000741205
0.000773206
0.000803938
0.000833331
0.000861316
0.000887826
0.000912799
0.000936174
0.000957895
0.000977907
0.000996162
0.00101262
0.00102722
0.00103995
0.00105077
0.00105964
0.00106656
0.00107149
0.00107443
0.0010754
0.00107443
0.00107149
0.00106656
0.00105964
-0.000909659
-0.000903151
-0.000895463
-0.000886601
-0.000876571
-0.00086538
-0.000853035
-0.000839546
-0.000824923
-0.000809176
-0.000792318
-0.00077436
-0.000755319
-0.000735209
-0.000714047
-0.00069185
-0.000668638
-0.000644433
-0.000619255
-0.000593129
-0.000566079
-0.000538133
-0.000509318
-0.000479665
-0.000449205
-0.000417972
-0.000386
-0.000353328
-0.000319993
-0.000286036
-0.0002515
-0.000216429
-0.00018087
-0.00014487
-0.000108479
-7.17502e-05
-3.47357e-05
2.50863e-06
3.99259e-05
7.74575e-05
0.000115043
0.000152621
0.000190129
0.000227502
0.000264675
0.000301581
0.000338154
0.000374325
0.000410026
0.000445188
0.000479742
0.000513618
0.00054675
0.000579067
0.000610503
0.00064099
0.000670464
0.00069886
0.000726114
0.000752167
0.000776959
0.000800435
0.000822538
0.00084322
0.00086243
0.000880123
0.000896259
0.000910796
0.000923702
0.000934945
0.000944497
0.000952335
0.000958441
0.000962798
0.000965393
0.000966249
0.00096539
0.000962791
0.000958431
0.000952323
-0.000820548
-0.000814567
-0.000807505
-0.000799366
-0.000790157
-0.000779885
-0.000768558
-0.000756185
-0.000742777
-0.000728343
-0.000712897
-0.000696451
-0.00067902
-0.000660619
-0.000641264
-0.000620974
-0.000599768
-0.000577665
-0.000554687
-0.000530858
-0.000506201
-0.000480743
-0.00045451
-0.000427532
-0.000399837
-0.00037146
-0.000342431
-0.000312787
-0.000282563
-0.000251799
-0.000220532
-0.000188804
-0.000156659
-0.00012414
-9.12932e-05
-5.81659e-05
-2.48068e-05
8.73391e-06
4.24045e-05
7.61523e-05
0.000109923
0.000143662
0.000177311
0.000210816
0.000244116
0.000277153
0.000309868
0.000342202
0.000374092
0.000405481
0.000436305
0.000466507
0.000496025
0.000524801
0.000552775
0.00057989
0.000606089
0.000631316
0.000655517
0.000678641
0.000700636
0.000721453
0.000741047
0.000759372
0.000776389
0.000792057
0.000806341
0.000819208
0.000830629
0.000840575
0.000849026
0.000855959
0.00086136
0.000865214
0.000867512
0.000868269
0.000867506
0.000865203
0.000861344
0.000855938
-0.00073994
-0.000734456
-0.000727982
-0.000720524
-0.000712087
-0.000702678
-0.000692306
-0.00068098
-0.00066871
-0.000655506
-0.000641381
-0.000626348
-0.00061042
-0.000593614
-0.000575944
-0.000557428
-0.000538085
-0.000517935
-0.000496998
-0.000475296
-0.000452853
-0.000429693
-0.000405843