/*--------------------------------*- C++ -*----------------------------------*\
| =========                 |                                                 |
| \\      /  F ield         | OpenFOAM: The Open Source CFD Toolbox           |
|  \\    /   O peration     | Version:  2306                                  |
|   \\  /    A nd           | Website:  www.openfoam.com                      |
|    \\/     M anipulation  |                                                 |
\*---------------------------------------------------------------------------*/
FoamFile
{
    version     2.0;
    format      ascii;
    arch        "LSB;label=32;scalar=64";
    class       surfaceScalarField;
    location    "25";
    object      phi;
}
// * * * * * * * * * * * * * * * * * * * * * * * * * * * * * * * * * * * * * //

dimensions      [0 3 -1 0 0 0 0];

oriented        oriented;

internalField   nonuniform List<scalar> 
37980
(
-0.116784
0.0213748
5.31135e-10
-0.13826
0.0214755
4.96145e-10
-0.159854
0.0215942
3.38273e-10
-0.181585
0.0217314
1.81428e-10
-0.203473
0.0218875
2.0226e-10
-0.225536
0.0220631
2.46432e-10
-0.247795
0.0222589
2.81266e-10
-0.27027
0.0224756
2.98527e-10
-0.292984
0.022714
3.12902e-10
-0.315959
0.022975
3.19378e-10
-0.339219
0.0232595
3.29189e-10
-0.362787
0.0235687
3.33637e-10
-0.386691
0.0239038
3.43129e-10
-0.410957
0.0242661
3.48164e-10
-0.435614
0.0246571
3.58595e-10
-0.460693
0.0250784
3.65292e-10
-0.486225
0.0255319
3.76955e-10
-0.512244
0.0260195
3.85912e-10
-0.538788
0.0265435
3.98785e-10
-0.565894
0.0271063
4.10565e-10
-0.593605
0.0277107
4.24555e-10
-0.621964
0.0283596
4.39854e-10
-0.651021
0.0290565
4.54865e-10
-0.680826
0.0298052
4.74576e-10
-0.711436
0.0306098
4.90541e-10
-0.742911
0.0314751
5.15826e-10
-0.775317
0.0324065
5.32774e-10
-0.808728
0.0334101
5.65158e-10
-0.84322
0.0344927
5.8333e-10
-0.878882
0.0356622
6.24745e-10
-0.91581
0.0369277
6.44624e-10
-0.95411
0.0382998
6.97153e-10
-0.9939
0.0397905
7.19128e-10
-1.03531
0.0414144
7.83964e-10
-1.0785
0.0431883
8.07206e-10
-1.12364
0.0451327
8.8244e-10
-1.17091
0.0472719
9.0318e-10
-1.22054
0.0496359
9.81461e-10
-1.2728
0.0522611
9.93721e-10
-1.328
0.055193
1.06561e-09
-1.38649
0.0584889
1.07448e-09
-1.44871
0.0622209
1.15126e-09
-1.51519
0.0664818
1.2154e-09
-1.58658
0.0713911
1.37646e-09
-1.66369
0.077105
1.63865e-09
-1.74751
0.0838284
1.9411e-09
-1.83935
0.0918331
2.21351e-09
-1.94083
0.101482
1.57263e-09
-2.05409
0.113262
-5.20313e-10
-2.18193
0.127841
-6.8958e-09
-2.32808
0.146146
-1.74446e-08
-2.4976
0.169518
-3.35576e-08
-2.69758
0.199988
-4.7869e-08
-2.93839
0.24081
-4.64889e-08
-3.23577
0.297378
-1.76792e-08
-3.61437
0.378596
5.02548e-08
-4.11353
0.499162
1.31005e-07
-4.79587
0.682344
1.97005e-07
-5.7511
0.95523
2.27731e-07
-7.09645
1.34534
3.4235e-07
-9.01403
1.91759
3.41223e-07
-7.40647
3.11714
2.98819e-07
-6.32422
3.64246
-2.58875e-07
-5.4873
3.88778
-4.60586e-07
-4.79045
4.02786
-4.96597e-07
-4.18195
4.1162
-4.26149e-07
-3.63363
4.17638
-2.9292e-07
-3.12898
4.22005
-1.51174e-07
-2.65726
4.25299
-3.1319e-08
-2.21087
4.27831
3.84445e-08
-1.78404
4.29787
7.58219e-08
-1.37224
4.3129
8.05691e-08
-0.97177
4.32423
7.67513e-08
-0.579495
4.33243
6.41757e-08
-0.192525
4.33773
5.43433e-08
0.192499
4.33968
4.55741e-08
0.579469
4.33773
2.80439e-08
0.971742
4.33243
1.43852e-08
1.37221
4.32423
-2.87619e-10
4.3129
-5.75195e-09
-0.222572
0.0620982
1.0334e-10
-0.263484
0.0623873
8.15424e-11
-0.30462
0.0627297
-7.23671e-11
-0.346015
0.0631266
-1.60465e-10
-0.387707
0.0635795
-1.36572e-10
-0.429734
0.0640898
-9.86724e-11
-0.472134
0.0646595
-7.64226e-11
-0.514949
0.0652907
-6.53455e-11
-0.558221
0.0659857
-6.1533e-11
-0.601993
0.0667472
-5.95806e-11
-0.646312
0.0675779
-5.99139e-11
-0.691224
0.0684813
-5.98449e-11
-0.736781
0.0694609
-6.08789e-11
-0.783036
0.0705206
-6.09432e-11
-0.830044
0.0716649
-6.16749e-11
-0.877864
0.0728986
-6.13322e-11
-0.926559
0.0742272
-6.13705e-11
-0.976196
0.0756567
-6.03756e-11
-1.02685
0.0771936
-5.93955e-11
-1.07859
0.0788454
-5.74634e-11
-1.1315
0.08062
-5.50127e-11
-1.18566
0.0825267
-5.17188e-11
-1.24118
0.0845756
-4.71628e-11
-1.29815
0.0867777
-4.19102e-11
-1.35669
0.0891458
-3.43791e-11
-1.41691
0.0916939
-2.63335e-11
-1.47894
0.0944378
-1.46108e-11
-1.54292
0.0973953
-2.57211e-12
-1.60902
0.100587
1.5093e-11
-1.67739
0.104034
3.28499e-11
-1.74823
0.107764
5.89146e-11
-1.82173
0.111807
8.46419e-11
-1.89814
0.116195
1.22143e-10
-1.97769
0.120967
1.58057e-10
-2.06067
0.12617
2.09711e-10
-2.1474
0.131856
2.56455e-10
-2.23821
0.138086
3.22969e-10
-2.33351
0.144933
3.78169e-10
-2.43373
0.152482
4.58628e-10
-2.53937
0.160837
5.2174e-10
-2.651
0.170121
6.26591e-10
-2.76927
0.180484
7.25971e-10
-2.8949
0.192111
9.2268e-10
-3.02873
0.205229
1.17927e-09
-3.17175
0.220121
1.64885e-09
-3.32507
0.237144
2.19418e-09
-3.48998
0.256751
2.97391e-09
-3.66802
0.279518
3.30667e-09
-3.86095
0.306193
2.43713e-09
-4.07086
0.337747
-1.37186e-09
-4.30017
0.375461
-9.66917e-09
-4.55171
0.421059
-2.28764e-08
-4.82866
0.476929
-3.83028e-08
-5.13433
0.546483
-4.64302e-08
-5.47168
0.634726
-3.86108e-08
-5.84217
0.74909
-6.03359e-09
-6.2436
0.90059
4.40744e-08
-6.66598
1.10472
9.23406e-08
-7.09112
1.38037
1.26874e-07
-7.48808
1.7423
1.31817e-07
-7.74798
2.17749
1.11192e-07
-7.25605
2.62521
4.07023e-09
-6.57471
2.96112
-4.85212e-08
-5.89343
3.20649
-7.36509e-08
-5.24757
3.382
-6.81247e-08
-4.64085
3.50948
-3.76979e-08
-4.06973
3.60527
-2.74506e-09
-3.52897
3.67929
2.76395e-08
-3.01339
3.73741
4.18674e-08
-2.51837
3.7833
4.52159e-08
-2.03986
3.81937
3.836e-08
-1.57423
3.84727
2.9196e-08
-1.11818
3.86818
1.93666e-08
-0.668598
3.88284
1.15469e-08
-0.222517
3.89165
6.45175e-09
0.222533
3.89463
3.58264e-09
0.668614
3.89165
3.68803e-09
1.1182
3.88284
6.70561e-09
1.57425
3.86818
9.22983e-09
3.84728
1.29617e-08
-0.246821
0.107248
-4.65617e-11
-0.292172
0.107739
-1.02993e-10
-0.337765
0.108322
-1.72825e-10
-0.383638
0.108999
-2.65124e-10
-0.429831
0.109773
-2.30539e-10
-0.476386
0.110645
-1.84881e-10
-0.523345
0.111619
-1.56115e-10
-0.570752
0.112698
-1.41566e-10
-0.618653
0.113887
-1.35567e-10
-0.667096
0.115189
-1.32472e-10
-0.716128
0.116611
-1.32162e-10
-0.765803
0.118156
-1.31812e-10
-0.816174
0.119832
-1.32897e-10
-0.867298
0.121645
-1.33116e-10
-0.919235
0.123602
-1.34304e-10
-0.972048
0.125712
-1.34345e-10
-1.0258
0.127983
-1.35088e-10
-1.08057
0.130427
-1.34587e-10
-1.13643
0.133054
-1.34481e-10
-1.19347
0.135876
-1.33106e-10
-1.25175
0.138907
-1.31683e-10
-1.31139
0.142162
-1.29023e-10
-1.37247
0.145658
-1.25682e-10
-1.43511
0.149415
-1.21225e-10
-1.49941
0.153452
-1.15198e-10
-1.56551
0.157793
-1.08292e-10
-1.63354
0.162465
-9.85763e-11
-1.70364
0.167497
-8.83738e-11
-1.77598
0.172921
-7.36374e-11
-1.85072
0.178777
-5.90325e-11
-1.92806
0.185105
-3.75587e-11
-2.0082
0.191953
-1.72635e-11
-2.09139
0.199378
1.28224e-11
-2.17786
0.20744
3.97398e-11
-2.2679
0.216212
7.95721e-11
-2.36182
0.225776
1.12378e-10
-2.45996
0.236227
1.60702e-10
-2.56271
0.247677
1.95566e-10
-2.67048
0.260254
2.48139e-10
-2.78375
0.274109
2.80568e-10
-2.90305
0.289418
3.37228e-10
-3.02895
0.306389
3.78189e-10
-3.16211
0.325271
4.69472e-10
-3.30324
0.346355
5.81627e-10
-3.45311
0.369992
8.01613e-10
-3.61257
0.396602
1.10136e-09
-3.78251
0.426691
1.49297e-09
-3.96386
0.460869
1.76388e-09
-4.15754
0.499879
1.52255e-09
-4.36443
0.544629
-2.12678e-11
-4.5852
0.596236
-3.7774e-09
-4.82023
0.65609
-1.02652e-08
-5.06925
0.725949
-1.89312e-08
-5.33085
0.808083
-2.6036e-08
-5.6016
0.905472
-2.87566e-08
-5.87455
1.02204
-2.11593e-08
-6.13677
1.16281
-3.63022e-09
-6.36572
1.33367
1.95971e-08
-6.52554
1.5402
3.92542e-08
-6.56671
1.78347
4.30681e-08
-6.44142
2.0522
3.08668e-08
-6.13431
2.3181
7.77024e-09
-5.72188
2.54869
-1.84293e-08
-5.25491
2.73952
-3.71132e-08
-4.767
2.8941
-4.16378e-08
-4.27651
3.01899
-3.40573e-08
-3.79184
3.12059
-2.06393e-08
-3.31629
3.20374
-6.86394e-09
-2.85073
3.27185
3.32088e-09
-2.39477
3.32734
9.41957e-09
-1.94739
3.37198
1.18066e-08
-1.50719
3.40708
1.19302e-08
-1.07264
3.43362
1.0791e-08
-0.642047
3.45226
8.89885e-09
-0.213765
3.46337
7.54669e-09
0.213772
3.46709
4.93535e-09
0.642055
3.46337
5.65279e-09
1.07264
3.45226
8.14035e-09
1.5072
3.43362
1.11863e-08
3.40708
1.30387e-08
-0.247809
0.152566
2.04844e-10
-0.293321
0.153251
2.26651e-10
-0.339064
0.154066
1.08544e-10
-0.385075
0.155011
7.75751e-11
-0.431394
0.156091
8.88789e-11
-0.478059
0.15731
1.06481e-10
-0.525111
0.158671
1.14109e-10
-0.572591
0.160179
1.16609e-10
-0.620544
0.161839
1.16193e-10
-0.669013
0.163658
1.16204e-10
-0.718045
0.165643
1.15913e-10
-0.767688
0.1678
1.16671e-10
-0.817994
0.170137
1.17265e-10
-0.869015
0.172665
1.18763e-10
-0.920806
0.175393
1.2008e-10
-0.973426
0.178332
1.22155e-10
-1.02694
0.181494
1.24134e-10
-1.0814
0.184893
1.26751e-10
-1.13689
0.188544
1.29478e-10
-1.19348
0.192463
1.32717e-10
-1.25124
0.196668
1.36383e-10
-1.31026
0.201179
1.40384e-10
-1.37062
0.206019
1.45243e-10
-1.43242
0.211212
1.5016e-10
-1.49575
0.216786
1.56498e-10
-1.56073
0.22277
1.62473e-10
-1.62746
0.2292
1.70614e-10
-1.69608
0.236112
1.77768e-10
-1.7667
0.243549
1.88099e-10
-1.83948
0.251557
1.96547e-10
-1.91457
0.260191
2.09546e-10
-1.99213
0.269509
2.19344e-10
-2.07233
0.27958
2.35499e-10
-2.15537
0.290477
2.4637e-10
-2.24144
0.302289
2.65749e-10
-2.33078
0.315111
2.76391e-10
-2.42361
0.329056
2.97813e-10
-2.52018
0.344249
3.05111e-10
-2.62076
0.360835
3.25887e-10
-2.72563
0.378981
3.26194e-10
-2.83509
0.398876
3.46003e-10
-2.94944
0.42074
3.43641e-10
-3.069
0.444826
3.78524e-10
-3.19407
0.471425
4.06179e-10
-3.32495
0.500877
5.1063e-10
-3.46192
0.53357
6.4067e-10
-3.60519
0.56996
8.81447e-10
-3.75489
0.61057
1.11138e-09
-3.91102
0.656006
1.28916e-09
-4.07336
0.706971
1.06196e-09
-4.2414
0.764272
1.2054e-10
-4.41415
0.828841
-2.03957e-09
-4.58995
0.901748
-5.54214e-09
-4.76609
0.984228
-9.97661e-09
-4.93831
1.07769
-1.40753e-08
-5.09999
1.18372
-1.62766e-08
-5.24114
1.30396
-1.53838e-08
-5.34735
1.43988
-1.10531e-08
-5.39914
1.59198
-4.62615e-09
-5.37408
1.7584
9.69841e-10
-5.25509
1.93321
3.95405e-09
-5.0432
2.10621
2.81495e-09
-4.7609
2.2664
8.22527e-11
-4.43068
2.4093
-2.12381e-09
-4.07072
2.53413
-2.31205e-09
-3.69368
2.64195
-6.16313e-10
-3.30754
2.73446
1.87833e-09
-2.91715
2.81335
4.30586e-09
-2.52536
2.88006
5.87791e-09
-2.13379
2.93577
6.56002e-09
-1.74328
2.98147
6.629e-09
-1.35411
3.01792
6.19319e-09
-0.966233
3.04574
5.46285e-09
-0.579347
3.06537
4.61502e-09
-0.193051
3.07708
3.70289e-09
0.193056
3.08098
1.89158e-09
0.579351
3.07708
2.95209e-09
0.966238
3.06537
3.8853e-09
1.35412
3.04574
8.17797e-09
3.01792
1.09049e-08
-0.243531
0.197085
-1.5191e-10
-0.288229
0.197949
-1.96958e-10
-0.333139
0.198975
-2.04489e-10
-0.378295
0.200167
-2.63752e-10
-0.423733
0.201529
-2.38443e-10
-0.469487
0.203064
-2.07136e-10
-0.515595
0.204779
-1.88604e-10
-0.562095
0.206678
-1.80979e-10
-0.609024
0.208768
-1.79498e-10
-0.656423
0.211058
-1.79549e-10
-0.704334
0.213553
-1.8138e-10
-0.752799
0.216264
-1.8275e-10
-0.801862
0.219201
-1.85223e-10
-0.85157
0.222374
-1.86892e-10
-0.901972
0.225794
-1.89463e-10
-0.953116
0.229477
-1.91154e-10
-1.00506
0.233435
-1.93525e-10
-1.05785
0.237684
-1.95019e-10
-1.11155
0.242243
-1.96855e-10
-1.16622
0.247131
-1.97884e-10
-1.22192
0.252368
-1.98763e-10
-1.27872
0.257979
-1.98998e-10
-1.33668
0.263988
-1.98407e-10
-1.3959
0.270425
-1.97465e-10
-1.45643
0.277319
-1.94801e-10
-1.51837
0.284707
-1.92266e-10
-1.58179
0.292626
-1.8684e-10
-1.6468
0.301119
-1.82276e-10
-1.71348
0.310231
-1.73316e-10
-1.78194
0.320016
-1.66284e-10
-1.85228
0.330531
-1.52956e-10
-1.92461
0.341841
-1.43077e-10
-1.99905
0.354016
-1.2459e-10
-2.07571
0.367137
-1.11729e-10
-2.15472
0.381293
-8.76503e-11
-2.23619
0.396584
-7.23611e-11
-2.32025
0.413122
-4.32458e-11
-2.40704
0.431031
-2.7375e-11
-2.49665
0.450453
4.65551e-12
-2.58922
0.471543
1.81731e-11
-2.68482
0.494479
5.07132e-11
-2.78354
0.519459
6.12853e-11
-2.88542
0.546704
9.727e-11
-2.99046
0.576464
1.16665e-10
-3.09859
0.609015
1.787e-10
-3.20969
0.644666
2.33326e-10
-3.32349
0.683763
3.50747e-10
-3.43961
0.726685
4.79792e-10
-3.55745
0.773848
6.35067e-10
-3.67619
0.825708
7.11662e-10
-3.79467
0.882753
6.00523e-10
-3.91133
0.945503
1.13871e-10
-4.02408
1.01449
-9.42289e-10
-4.13012
1.09027
-2.56737e-09
-4.22577
1.17335
-4.71281e-09
-4.30623
1.26417
-6.76549e-09
-4.36527
1.36301
-8.30107e-09
-4.39521
1.46983
-8.55186e-09
-4.3872
1.58397
-7.38184e-09
-4.33258
1.70379
-4.88475e-09
-4.22567
1.82629
-1.7142e-09
-4.06684
1.94738
1.5577e-09
-3.86336
2.06291
4.65975e-09
-3.62434
2.17028
6.86773e-09
-3.35836
2.26815
8.47231e-09
-3.0725
2.35609
9.623e-09
-2.77219
2.43416
9.79739e-09
-2.46148
2.50263
9.59394e-09
-2.14332
2.5619
8.91573e-09
-1.81991
2.61236
8.13718e-09
-1.49282
2.65438
7.26586e-09
-1.16322
2.68832
6.50814e-09
-0.831932
2.71445
5.82895e-09
-0.499563
2.733
5.22831e-09
-0.166587
2.7441
4.47902e-09
0.166589
2.74781
2.38432e-09
0.499566
2.7441
3.52165e-09
0.831934
2.733
4.00015e-09
1.16322
2.71445
6.69762e-09
2.68832
7.27634e-09
-0.237456
0.240474
1.85099e-10
-0.281003
0.241496
2.15346e-10
-0.324738
0.242711
1.34767e-10
-0.368692
0.244121
1.12484e-10
-0.412895
0.245732
1.13627e-10
-0.457379
0.247548
1.20327e-10
-0.502174
0.249574
1.21058e-10
-0.547315
0.251818
1.19046e-10
-0.592833
0.254287
1.16104e-10
-0.638764
0.256988
1.14046e-10
-0.685141
0.259931
1.12656e-10
-0.732002
0.263125
1.12094e-10
-0.779384
0.266582
1.11954e-10
-0.827324
0.270314
1.12157e-10
-0.875862
0.274332
1.12628e-10
-0.925039
0.278653
1.13129e-10
-0.974897
0.283292
1.1397e-10
-1.02548
0.288266
1.14627e-10
-1.07683
0.293594
1.15857e-10
-1.129
0.299298
1.16694e-10
-1.18203
0.305399
1.18451e-10
-1.23597
0.311922
1.19553e-10
-1.29088
0.318896
1.22029e-10
-1.3468
0.326349
1.23488e-10
-1.4038
0.334314
1.26884e-10
-1.46192
0.342828
1.28754e-10
-1.52122
0.35193
1.33255e-10
-1.58176
0.361662
1.35516e-10
-1.64361
0.372072
1.41258e-10
-1.7068
0.383213
1.43766e-10
-1.77141
0.395141
1.50793e-10
-1.83749
0.407919
1.53218e-10
-1.90509
0.421616
1.61416e-10
-1.97426
0.436309
1.63122e-10
-2.04505
0.452081
1.72061e-10
-2.11749
0.469024
1.7189e-10
-2.19161
0.48724
1.8053e-10
-2.26741
0.50684
1.76427e-10
-2.34491
0.527946
1.82739e-10
-2.42406
0.550693
1.71809e-10
-2.5048
0.575227
1.73273e-10
-2.58706
0.60171
1.53093e-10
-2.67067
0.630315
1.47438e-10
-2.75544
0.661233
1.21414e-10
-2.84109
0.694668
1.17888e-10
-2.92726
0.730839
9.62545e-11
-3.01348
0.76998
1.11324e-10
-3.09913
0.812335
1.18275e-10
-3.18344
0.858158
1.66264e-10
-3.26543
0.907704
1.95475e-10
-3.34391
0.961228
2.18785e-10
-3.41738
1.01897
1.44142e-10
-3.48402
1.08113
-6.89545e-11
-3.54163
1.14789
-4.94076e-10
-3.58761
1.21932
-1.14495e-09
-3.61885
1.29541
-1.9165e-09
-3.63181
1.37597
-2.68155e-09
-3.62257
1.46059
-3.13463e-09
-3.58714
1.54854
-3.13607e-09
-3.52206
1.63871
-2.44308e-09
-3.42529
1.72953
-1.33125e-09
-3.29703
1.81912
2.28511e-10
-3.13974
1.90563
1.82907e-09
-2.95707
1.9876
3.2869e-09
-2.75293
2.06401
4.33322e-09
-2.53104
2.13421
4.96872e-09
-2.2947
2.19782
5.16282e-09
-2.04671
2.25464
5.06965e-09
-1.78942
2.30461
4.75893e-09
-1.5248
2.34774
4.37219e-09
-1.25449
2.38407
3.97219e-09
-0.979856
2.41368
3.62917e-09
-0.702052
2.43665
3.38355e-09
-0.422078
2.45303
3.20948e-09
-0.140833
2.46285
3.08137e-09
0.140835
2.46614
2.45574e-09
0.42208
2.46285
1.86249e-09
0.702054
2.45303
1.31882e-09
0.979858
2.43665
1.82293e-09
2.41368
3.01706e-09
-0.23019
0.282511
-1.48923e-10
-0.272364
0.28367
-1.78601e-10
-0.314699
0.285046
-1.66842e-10
-0.357221
0.286643
-1.98262e-10
-0.399957
0.288467
-1.81824e-10
-0.442931
0.290522
-1.62605e-10
-0.486171
0.292814
-1.51256e-10
-0.529704
0.295351
-1.4728e-10
-0.573556
0.298139
-1.47025e-10
-0.617757
0.301189
-1.47905e-10
-0.662333
0.304507
-1.49528e-10
-0.707314
0.308107
-1.51088e-10
-0.752729
0.311997
-1.52934e-10
-0.798608
0.316192
-1.54671e-10
-0.84498
0.320705
-1.56499e-10
-0.891877
0.32555
-1.58316e-10
-0.93933
0.330745
-1.59939e-10
-0.987369
0.336306
-1.61693e-10
-1.03603
0.342253
-1.62841e-10
-1.08534
0.348608
-1.64324e-10
-1.13533
0.355392
-1.64647e-10
-1.18604
0.362632
-1.65596e-10
-1.2375
0.370354
-1.64677e-10
-1.28974
0.378587
-1.64798e-10
-1.34279
0.387364
-1.62167e-10
-1.39668
0.39672
-1.61157e-10
-1.45144
0.406692
-1.56317e-10
-1.5071
0.417321
-1.539e-10
-1.56368
0.428652
-1.46378e-10
-1.6212
0.440735
-1.42372e-10
-1.67968
0.453621
-1.31795e-10
-1.73913
0.467368
-1.26201e-10
-1.79955
0.482038
-1.12415e-10
-1.86094
0.497698
-1.05555e-10
-1.92328
0.514422
-8.88191e-11
-1.98655
0.532288
-8.15388e-11
-2.05069
0.551382
-6.28081e-11
-2.11565
0.571796
-5.67604e-11
-2.18133
0.593628
-3.80683e-11
-2.24762
0.616984
-3.59002e-11
-2.31437
0.641977
-2.06287e-11
-2.38139
0.668726
-2.328e-11
-2.44843
0.697359
-1.68823e-11
-2.5152
0.728007
-3.08072e-11
-2.58134
0.760807
-3.06825e-11
-2.6464
0.7959
-5.18649e-11
-2.70985
0.833427
-5.69238e-11
-2.77104
0.873526
-7.65179e-11
-2.82922
0.916331
-7.97769e-11
-2.88347
0.961962
-9.07326e-11
-2.93277
1.01052
-9.88515e-11
-2.97588
1.06208
-1.23741e-10
-3.01142
1.11668
-1.89964e-10
-3.03783
1.17429
-3.04603e-10
-3.05335
1.23484
-5.17063e-10
-3.0561
1.29816
-7.8138e-10
-3.04408
1.36395
-1.12957e-09
-3.01529
1.4318
-1.43288e-09
-2.96789
1.50114
-1.71021e-09
-2.90042
1.57124
-1.76099e-09
-2.8121
1.6412
-1.81148e-09
-2.70302
1.71004
-1.63795e-09
-2.57416
1.77677
-1.45277e-09
-2.42709
1.84053
-1.22459e-09
-2.26368
1.9006
-1.10186e-09
-2.08592
1.95645
-1.02643e-09
-1.89575
2.00764
-1.07579e-09
-1.695
2.05389
-1.16389e-09
-1.48536
2.09497
-1.31939e-09
-1.26837
2.13075
-1.46849e-09
-1.04542
2.16112
-1.62091e-09
-0.817784
2.18604
-1.72801e-09
-0.586599
2.20546
-1.7904e-09
-0.352938
2.21937
-1.80722e-09
-0.117808
2.22773
-1.7967e-09
0.11781
2.23052
-1.92518e-09
0.352939
2.22773
-2.14688e-09
0.586601
2.21937
-3.20725e-09
0.817785
2.20546
-3.65457e-09
2.18604
-3.96011e-09
-0.221945
0.323017
1.2063e-10
-0.262563
0.324288
1.53818e-10
-0.303315
0.325797
1.00258e-10
-0.34422
0.327549
9.15726e-11
-0.3853
0.329547
8.96164e-11
-0.426575
0.331797
9.09156e-11
-0.468067
0.334306
8.90328e-11
-0.509796
0.33708
8.62112e-11
-0.551784
0.340128
8.33684e-11
-0.594052
0.343457
8.11694e-11
-0.636621
0.347077
7.97748e-11
-0.679513
0.350999
7.86911e-11
-0.72275
0.355233
7.82293e-11
-0.766351
0.359794
7.75727e-11
-0.810338
0.364692
7.74845e-11
-0.854733
0.369945
7.68552e-11
-0.899556
0.375567
7.69418e-11
-0.944826
0.381576
7.62206e-11
-0.990564
0.387991
7.64973e-11
-1.03679
0.394832
7.56992e-11
-1.08352
0.402121
7.62775e-11
-1.13076
0.409881
7.54687e-11
-1.17855
0.418139
7.65033e-11
-1.22688
0.426921
7.57645e-11
-1.27578
0.436259
7.74296e-11
-1.32524
0.446183
7.68332e-11
-1.37528
0.456729
7.93015e-11
-1.42589
0.467934
7.88807e-11
-1.47708
0.479837
8.22906e-11
-1.52882
0.492482
8.20005e-11
-1.58112
0.505914
8.64122e-11
-1.63393
0.520183
8.60701e-11
-1.68724
0.535342
9.14029e-11
-1.74099
0.551447
9.05974e-11
-1.79512
0.568558
9.65374e-11
-1.84957
0.586738
9.46236e-11
-1.90425
0.606056
1.00468e-10
-1.95903
0.626581
9.63416e-11
-2.01379
0.64839
1.00959e-10
-2.06837
0.671558
9.3194e-11
-2.12256
0.696168
9.5369e-11
-2.17613
0.722302
8.15841e-11
-2.22882
0.750044
7.85683e-11
-2.28029
0.779479
5.86793e-11
-2.33017
0.810689
5.02525e-11
-2.37803
0.843756
2.48877e-11
-2.42336
0.878753
1.28066e-11
-2.46557
0.915745
-1.31331e-11
-2.50403
0.954788
-2.36806e-11
-2.53799
0.995918
-4.27887e-11
-2.56662
1.03915
-4.74996e-11
-2.58901
1.08447
-5.83104e-11
-2.60417
1.13184
-6.5437e-11
-2.61102
1.18115
-8.54084e-11
-2.60846
1.23228
-1.2325e-10
-2.59531
1.28501
-1.84044e-10
-2.57046
1.33909
-2.7747e-10
-2.53284
1.39418
-3.86424e-10
-2.48153
1.44984
-5.15524e-10
-2.41588
1.50559
-6.32218e-10
-2.33555
1.56087
-7.50363e-10
-2.2406
1.61509
-8.36078e-10
-2.13151
1.66767
-9.21965e-10
-2.00903
1.71805
-9.85717e-10
-1.87418
1.76575
-1.05894e-09
-1.72807
1.81034
-1.12107e-09
-1.5719
1.85147
-1.19376e-09
-1.40687
1.88886
-1.25753e-09
-1.23417
1.92228
-1.32329e-09
-1.05496
1.95154
-1.37885e-09
-0.870337
1.9765
-1.42393e-09
-0.681361
1.99706
-1.45308e-09
-0.489046
2.01315
-1.45188e-09
-0.294368
2.02469
-1.42402e-09
-0.0982792
2.03164
-1.33303e-09
0.0982804
2.03396
-1.108e-09
0.294369
2.03164
-1.40721e-09
0.489047
2.02469
-1.70159e-09
0.681363
2.01315
-2.36759e-09
1.99706
-2.52942e-09
-0.212897
0.361846
-1.47511e-10
-0.251813
0.363205
-1.70376e-10
-0.290833
0.364817
-1.48646e-10
-0.329973
0.366688
-1.63643e-10
-0.369248
0.368822
-1.52452e-10
-0.408674
0.371223
-1.40425e-10
-0.448267
0.373899
-1.32466e-10
-0.488043
0.376855
-1.29413e-10
-0.528015
0.3801
-1.28439e-10
-0.5682
0.383641
-1.28675e-10
-0.608611
0.387488
-1.29069e-10
-0.649263
0.391651
-1.29938e-10
-0.690171
0.396141
-1.30536e-10
-0.731346
0.400969
-1.31648e-10
-0.772801
0.406148
-1.3222e-10
-0.81455
0.411693
-1.33472e-10
-0.856601
0.417619
-1.33844e-10
-0.898965
0.423941
-1.35115e-10
-0.941651
0.430677
-1.35065e-10
-0.984665
0.437846
-1.36194e-10
-1.02801
0.445469
-1.35453e-10
-1.0717
0.453566
-1.3625e-10
-1.11572
0.462161
-1.34508e-10
-1.16008
0.47128
-1.34759e-10
-1.20477
0.480947
-1.31677e-10
-1.24978
0.491193
-1.31154e-10
-1.29509
0.502046
-1.2636e-10
-1.3407
0.51354
-1.24844e-10
-1.38657
0.525707
-1.18018e-10
-1.43267
0.538585
-1.15378e-10
-1.47897
0.552212
-1.06272e-10
-1.52542
0.566627
-1.02467e-10
-1.57195
0.581875
-9.09997e-11
-1.6185
0.597998
-8.62038e-11
-1.66499
0.615045
-7.25553e-11
-1.71131
0.633063
-6.72891e-11
-1.75736
0.652103
-5.21236e-11
-1.803
0.672217
-4.71978e-11
-1.84806
0.693457
-3.17487e-11
-1.89238
0.715877
-2.80779e-11
-1.93574
0.739531
-1.44759e-11
-1.97791
0.764471
-1.47329e-11
-2.01862
0.790747
-4.3273e-12
-2.05755
0.81841
-9.89108e-12
-2.09436
0.847501
-5.53339e-12
-2.12866
0.878058
-1.75163e-11
-2.16002
0.910113
-2.068e-11
-2.18796
0.943682
-3.86565e-11
-2.21194
0.978774
-4.91902e-11
-2.2314
1.01538
-7.10169e-11
-2.24572
1.05346
-8.77536e-11
-2.25422
1.09298
-1.11774e-10
-2.25623
1.13384
-1.35869e-10
-2.25102
1.17594
-1.6565e-10
-2.23788
1.21914
-2.04727e-10
-2.21611
1.26324
-2.51239e-10
-2.18504
1.30802
-3.17113e-10
-2.14408
1.35322
-3.90771e-10
-2.09277
1.39853
-4.88209e-10
-2.03078
1.4436
-5.88157e-10
-1.95798
1.48806
-7.04208e-10
-1.87442
1.53154
-8.02511e-10
-1.78038
1.57363
-9.36642e-10
-1.67629
1.61397
-1.04312e-09
-1.56276
1.65222
-1.15297e-09
-1.44048
1.68806
-1.24275e-09
-1.31023
1.72122
-1.3298e-09
-1.17281
1.75145
-1.39674e-09
-1.02909
1.77856
-1.45737e-09
-0.879923
1.80236
-1.50183e-09
-0.72616
1.82274
-1.53768e-09
-0.568655
1.83956
-1.56031e-09
-0.408249
1.85274
-1.57054e-09
-0.245776
1.86221
-1.56354e-09
-0.0820633
1.86792
-1.49119e-09
0.0820644
1.86983
-1.18826e-09
0.245777
1.86792
-1.42094e-09
0.40825
1.86221
-1.8619e-09
0.568656
1.85274
-2.32649e-09
1.83956
-2.40266e-09
-0.203222
0.398883
8.33809e-11
-0.240322
0.400305
1.11603e-10
-0.277498
0.401993
7.47859e-11
-0.31476
0.403951
7.22632e-11
-0.35212
0.406181
6.80382e-11
-0.389588
0.408691
6.59171e-11
-0.427173
0.411485
6.26801e-11
-0.464887
0.414569
5.9776e-11
-0.502739
0.417951
5.73451e-11
-0.540737
0.421639
5.53602e-11
-0.57889
0.425642
5.4131e-11
-0.617206
0.429967
5.28956e-11
-0.655692
0.434626
5.23432e-11
-0.694353
0.43963
5.13308e-11
-0.733195
0.44499
5.10545e-11
-0.772222
0.45072
4.99767e-11
-0.811435
0.456832
4.98378e-11
-0.850836
0.463342
4.86048e-11
-0.890424
0.470265
4.86146e-11
-0.930196
0.477618
4.7231e-11
-0.970147
0.485419
4.74663e-11
-1.01027
0.493688
4.59744e-11
-1.05055
0.502443
4.65408e-11
-1.09098
0.511707
4.49701e-11
-1.13153
0.521503
4.58731e-11
-1.1722
0.531854
4.43499e-11
-1.21294
0.542786
4.61118e-11
-1.25372
0.554326
4.4913e-11
-1.29451
0.5665
4.73129e-11
-1.33527
0.579339
4.60048e-11
-1.37593
0.592873
4.92663e-11
-1.41644
0.607134
4.81989e-11
-1.45672
0.622154
5.2405e-11
-1.49669
0.637967
5.14556e-11
-1.53625
0.654608
5.65675e-11
-1.5753
0.672111
5.56208e-11
-1.61371
0.690512
6.17514e-11
-1.65133
0.709847
5.38169e-11
-1.68803
0.730149
6.62259e-11
-1.7236
0.751453
6.36447e-11
-1.75786
0.773791
6.92658e-11
-1.79059
0.797193
6.54585e-11
-1.82152
0.821685
6.9982e-11
-1.8504
0.84729
6.40898e-11
-1.87693
0.874024
6.66103e-11
-1.90077
0.901896
5.82655e-11
-1.92156
0.93091
5.8228e-11
-1.93894
0.961056
4.76199e-11
-1.95247
0.992313
4.50515e-11
-1.96175
1.02465
3.30568e-11
-1.96629
1.05801
2.84693e-11
-1.96565
1.09234
1.59882e-11
-1.95934
1.12753
9.41944e-12
-1.94689
1.16349
-4.0809e-12
-1.92782
1.20008
-1.46156e-11
-1.90172
1.23714
-3.24021e-11
-1.86818
1.27448
-5.11048e-11
-1.82688
1.31192
-7.78054e-11
-1.77755
1.3492
-1.08439e-10
-1.72005
1.3861
-1.45952e-10
-1.65432
1.42233
-1.88023e-10
-1.58043
1.45765
-2.33699e-10
-1.49857
1.49177
-2.82106e-10
-1.40904
1.52444
-3.30709e-10
-1.31222
1.5554
-3.73624e-10
-1.20858
1.58443
-4.18466e-10
-1.09867
1.6113
-4.55002e-10
-0.983063
1.63584
-4.86908e-10
-0.862379
1.65787
-5.11929e-10
-0.737265
1.67725
-5.32209e-10
-0.608384
1.69386
-5.44518e-10
-0.47641
1.70759
-5.77119e-10
-0.342022
1.71835
-5.86116e-10
-0.205907
1.7261
-5.84331e-10
-0.0687513
1.73077
-5.33581e-10
0.0687519
1.73233
-2.85262e-10
0.205907
1.73077
-4.30684e-10
0.342023
1.7261
-4.53852e-10
0.47641
1.71835
-8.52392e-10
1.70759
-1.03204e-09
-0.193091
0.434047
-1.4402e-10
-0.228296
0.43551
-1.61775e-10
-0.263549
0.437246
-1.36969e-10
-0.298857
0.439258
-1.40501e-10
-0.334226
0.44155
-1.31486e-10
-0.369662
0.444127
-1.23416e-10
-0.405171
0.446993
-1.17286e-10
-0.440757
0.450155
-1.14407e-10
-0.476425
0.453619
-1.12619e-10
-0.512178
0.457393
-1.1208e-10
-0.54802
0.461483
-1.11414e-10
-0.583952
0.465899
-1.11545e-10
-0.619976
0.47065
-1.11115e-10
-0.65609
0.475744
-1.11541e-10
-0.692294
0.481194
-1.11087e-10
-0.728584
0.48701
-1.11676e-10
-0.764957
0.493204
-1.11031e-10
-0.801405
0.49979
-1.11675e-10
-0.837919
0.50678
-1.10669e-10
-0.874491
0.514189
-1.11255e-10
-0.911105
0.522033
-1.09703e-10
-0.947745
0.530328
-1.10104e-10
-0.984393
0.539091
-1.078e-10
-1.02103
0.54834
-1.07875e-10
-1.05762
0.558093
-1.04603e-10
-1.09413
0.56837
-1.0421e-10
-1.13054
0.579192
-9.97905e-11
-1.16679
0.590579
-9.8869e-11
-1.20284
0.602554
-9.2971e-11
-1.23864
0.615139
-9.08862e-11
-1.27413
0.628357
-8.3157e-11
-1.30922
0.642233
-8.05839e-11
-1.34386
0.656789
-7.12908e-11
-1.37794
0.67205
-6.76821e-11
-1.41138
0.68804
-5.65441e-11
-1.44405
0.704783
-5.14397e-11
-1.47584
0.722301
-4.56563e-11
-1.50661
0.740617
-3.41176e-11
-1.53621
0.759752
-2.10882e-11
-1.56448
0.779723
-1.63988e-11
-1.59124
0.800548
-2.31247e-12
-1.61628
0.822239
2.02842e-12
-1.6394
0.844806
1.55534e-11
-1.66037
0.868254
1.85492e-11
-1.67892
0.892581
3.0516e-11
-1.69481
0.917781
3.13456e-11
-1.70774
0.943839
4.05636e-11
-1.71741
0.970731
3.85835e-11
-1.72352
0.998423
4.41128e-11
-1.72575
1.02687
3.89201e-11
-1.72375
1.05602
4.01629e-11
-1.71721
1.0858
3.161e-11
-1.7058
1.11612
2.81464e-11
-1.6892
1.14689
1.60978e-11
-1.6671
1.17798
7.54836e-12
-1.63925
1.20928
-8.68262e-12
-1.60539
1.24063
-2.30184e-11
-1.56535
1.27188
-4.42992e-11
-1.51899
1.30284
-6.44049e-11
-1.46623
1.33334
-9.07515e-11
-1.40708
1.36318
-1.1654e-10
-1.34161
1.39218
-1.46333e-10
-1.26996
1.42012
-1.7596e-10
-1.19235
1.44683
-2.05588e-10
-1.10907
1.47212
-2.31722e-10
-1.02045
1.49581
-2.59842e-10
-0.926889
1.51774
-2.83117e-10
-0.828813
1.53776
-3.04443e-10
-0.72669
1.55575
-3.21012e-10
-0.621015
1.57158
-3.36324e-10
-0.512301
1.58514
-3.47644e-10
-0.401081
1.59637
-3.59791e-10
-0.287898
1.60517
-3.71047e-10
-0.173305
1.61151
-3.76195e-10
-0.0578631
1.61533
-3.34217e-10
0.0578637
1.6166
-1.08757e-10
0.173306
1.61533
-3.08767e-10
0.287899
1.61151
-4.02371e-10
0.401082
1.60517
-6.70074e-10
1.59637
-6.67028e-10
-0.182669
0.467287
7.26762e-11
-0.21593
0.468771
9.97293e-11
-0.249213
0.47053
7.0227e-11
-0.282522
0.472568
7.37553e-11
-0.315859
0.474887
6.84838e-11
-0.349226
0.477493
6.41579e-11
-0.382623
0.480391
5.9414e-11
-0.416051
0.483584
5.59305e-11
-0.449511
0.487079
5.30975e-11
-0.483001
0.490883
5.08245e-11
-0.516519
0.495002
4.92129e-11
-0.550063
0.499443
4.76513e-11
-0.583628
0.504214
4.6731e-11
-0.617208
0.509325
4.53716e-11
-0.650797
0.514784
4.4761e-11
-0.684387
0.5206
4.3367e-11
-0.717968
0.526784
4.29565e-11
-0.751526
0.533348
4.1456e-11
-0.785048
0.540302
4.12332e-11
-0.818518
0.547659
3.96058e-11
-0.851915
0.555431
3.96046e-11
-0.885218
0.563631
3.78725e-11
-0.918401
0.572274
3.81654e-11
-0.951436
0.581374
3.6375e-11
-0.984289
0.590946
3.70347e-11
-1.01692
0.601005
3.52196e-11
-1.0493
0.611566
3.62898e-11
-1.08137
0.622647
3.40625e-11
-1.11308
0.634264
4.09195e-11
-1.14437
0.646432
3.09334e-11
-1.17518
0.659169
3.75475e-11
-1.20544
0.672492
3.61098e-11
-1.23507
0.686417
3.90919e-11
-1.26398
0.70096
3.78893e-11
-1.29207
0.716136
4.1913e-11
-1.31925
0.73196
4.10871e-11
-1.3454
0.748445
4.58967e-11
-1.37038
0.765604
4.52785e-11
-1.39408
0.783445
5.07887e-11
-1.41633
0.801978
5.0371e-11
-1.43699
0.821206
5.64035e-11
-1.45588
0.841132
5.60508e-11
-1.47283
0.861753
6.23901e-11
-1.48764
0.883063
6.18e-11
-1.50011
0.905051
6.80224e-11
-1.51003
0.9277
6.69427e-11
-1.51717
0.950985
7.25908e-11
-1.52132
0.974876
7.07178e-11
-1.52223
0.999333
7.5353e-11
-1.51967
1.02431
7.24437e-11
-1.5134
1.04975
7.56996e-11
-1.50319
1.07559
7.15742e-11
-1.48883
1.10175
7.31584e-11
-1.47008
1.12814
6.76778e-11
-1.44677
1.15467
6.74317e-11
-1.41872
1.18123
6.04862e-11
-1.38579
1.2077
5.82214e-11
-1.34788
1.23396
4.96174e-11
-1.30491
1.25987
4.54264e-11
-1.25687
1.28529
3.54166e-11
-1.20377
1.31009
2.93187e-11
-1.1457
1.3341
1.81568e-11
-1.08277
1.35719
1.10732e-11
-1.01516
1.37922
-1.1239e-13
-0.943078
1.40004
-6.96725e-12
-0.866793
1.41952
-1.68605e-11
-0.786598
1.43755
-2.21473e-11
-0.702825
1.45399
-2.98284e-11
-0.615832
1.46876
-3.31666e-11
-0.526003
1.48175
-3.8713e-11
-0.433742
1.49288
-4.08876e-11
-0.339468
1.50209
-4.66278e-11
-0.243616
1.50932
-5.20587e-11
-0.146626
1.51452
-5.53377e-11
-0.048952
1.51765
-3.55902e-11
0.0489521
1.5187
9.02462e-11
0.146627
1.51765
-6.55619e-13
0.243616
1.51452
7.30601e-11
0.339469
1.50932
-1.37184e-10
1.50209
-2.6435e-10
-0.172107
0.498582
-1.11107e-10
-0.203402
0.500066
-1.30931e-10
-0.234698
0.501826
-1.03644e-10
-0.265993
0.503863
-1.0837e-10
-0.297287
0.506181
-1.01556e-10
-0.328576
0.508783