/*--------------------------------*- C++ -*----------------------------------*\
| =========                 |                                                 |
| \\      /  F ield         | OpenFOAM: The Open Source CFD Toolbox           |
|  \\    /   O peration     | Version:  2306                                  |
|   \\  /    A nd           | Website:  www.openfoam.com                      |
|    \\/     M anipulation  |                                                 |
\*---------------------------------------------------------------------------*/
FoamFile
{
    version     2.0;
    format      ascii;
    arch        "LSB;label=32;scalar=64";
    class       volVectorField;
    location    "25";
    object      U;
}
// * * * * * * * * * * * * * * * * * * * * * * * * * * * * * * * * * * * * * //

dimensions      [0 1 -1 0 0 0 0];

internalField   nonuniform List<vector> 
14400
(
(-0.00420953 0.000413106 -4.28916e-11)
(-0.00505961 0.000415045 -4.0817e-11)
(-0.00591404 0.000417292 -2.59622e-11)
(-0.00677354 0.000419857 -2.62412e-11)
(-0.00763885 0.000422751 -2.62833e-11)
(-0.00851074 0.000425986 -2.69848e-11)
(-0.00939 0.000429573 -2.75817e-11)
(-0.0102774 0.000433526 -2.83771e-11)
(-0.0111739 0.000437858 -2.89983e-11)
(-0.0120802 0.000442582 -2.97854e-11)
(-0.0129974 0.000447716 -3.04533e-11)
(-0.0139263 0.000453276 -3.12853e-11)
(-0.014868 0.000459281 -3.20557e-11)
(-0.0158236 0.000465751 -3.29487e-11)
(-0.016794 0.000472708 -3.38451e-11)
(-0.0177806 0.000480178 -3.47866e-11)
(-0.0187845 0.000488185 -3.58184e-11)
(-0.019807 0.00049676 -3.6779e-11)
(-0.0208496 0.000505935 -3.79484e-11)
(-0.0219138 0.000515745 -3.88823e-11)
(-0.023001 0.000526228 -4.0183e-11)
(-0.0241131 0.000537427 -4.10236e-11)
(-0.0252519 0.00054939 -4.24363e-11)
(-0.0264193 0.00056217 -4.30901e-11)
(-0.0276175 0.000575827 -4.45744e-11)
(-0.0288488 0.000590427 -4.49125e-11)
(-0.0301157 0.00060605 -4.63927e-11)
(-0.0314209 0.000622783 -4.6241e-11)
(-0.0327674 0.000640732 -4.75827e-11)
(-0.0341585 0.000660021 -4.67096e-11)
(-0.0355978 0.0006808 -4.76808e-11)
(-0.0370893 0.000703253 -4.57877e-11)
(-0.0386376 0.000727608 -4.60047e-11)
(-0.0402474 0.000754153 -4.27337e-11)
(-0.0419245 0.000783257 -4.16016e-11)
(-0.0436751 0.000815398 -3.65887e-11)
(-0.0455065 0.000851201 -3.32555e-11)
(-0.0474269 0.000891495 -2.62539e-11)
(-0.0494459 0.000937382 -1.95679e-11)
(-0.0515746 0.000990344 -1.05718e-11)
(-0.0538262 0.00105238 1.16076e-12)
(-0.0562165 0.0011262 1.21386e-11)
(-0.0587642 0.00121548 3.23022e-11)
(-0.0614926 0.00132527 4.64614e-11)
(-0.06443 0.00146244 8.27896e-11)
(-0.0676118 0.00163647 1.02955e-10)
(-0.0710827 0.00186043 1.69022e-10)
(-0.0748997 0.00215249 1.86188e-10)
(-0.0791362 0.00253822 2.7659e-10)
(-0.083888 0.00305451 2.0036e-10)
(-0.0892811 0.00375671 1.8832e-10)
(-0.0954848 0.00473316 -2.08091e-10)
(-0.102732 0.00613572 -7.97827e-10)
(-0.11135 0.00824215 -1.39157e-09)
(-0.121805 0.0115714 -3.01107e-09)
(-0.134863 0.0170867 -2.87326e-09)
(-0.152078 0.0265715 -3.7853e-09)
(-0.175832 0.0427468 -3.15629e-09)
(-0.208071 0.066941 -1.02441e-09)
(-0.251806 0.098623 1.94842e-09)
(-0.310314 0.151575 6.70604e-09)
(-0.352339 0.333236 9.65063e-09)
(-0.278382 0.408673 1.05113e-08)
(-0.231474 0.43667 7.75779e-09)
(-0.20246 0.449599 4.04627e-09)
(-0.177427 0.456848 1.16924e-09)
(-0.154649 0.461435 -1.1536e-09)
(-0.133838 0.464604 -2.2032e-09)
(-0.114542 0.466922 -2.85052e-09)
(-0.096386 0.468669 -2.66829e-09)
(-0.0791067 0.470001 -2.44603e-09)
(-0.0625045 0.471016 -1.84847e-09)
(-0.0464182 0.471784 -1.43133e-09)
(-0.0307169 0.472349 -8.44074e-10)
(-0.0152998 0.472722 -4.75694e-10)
(-5.52187e-07 0.472861 -5.44692e-11)
(0.0152987 0.472723 3.33751e-10)
(0.0307158 0.472349 -1.95391e-11)
(0.046417 0.471785 1.81803e-09)
(0.0625033 0.471017 2.36171e-10)
(-0.00802303 0.00420348 -3.57164e-11)
(-0.00964253 0.00422327 -3.78064e-11)
(-0.0112702 0.00424665 -2.43982e-11)
(-0.0129075 0.0042737 -2.48481e-11)
(-0.0145557 0.00430451 -2.50609e-11)
(-0.0162165 0.00433921 -2.5654e-11)
(-0.0178914 0.00437793 -2.63222e-11)
(-0.0195819 0.00442079 -2.69813e-11)
(-0.0212896 0.00446797 -2.7678e-11)
(-0.0230163 0.00451965 -2.8344e-11)
(-0.0247638 0.00457601 -2.90822e-11)
(-0.0265339 0.00463729 -2.98041e-11)
(-0.0283285 0.00470372 -3.06279e-11)
(-0.0301498 0.00477558 -3.14225e-11)
(-0.0319997 0.00485315 -3.23458e-11)
(-0.0338808 0.00493679 -3.3205e-11)
(-0.0357952 0.00502684 -3.42262e-11)
(-0.0377457 0.00512372 -3.51273e-11)
(-0.0397349 0.00522787 -3.62338e-11)
(-0.0417658 0.0053398 -3.71396e-11)
(-0.0438414 0.00546005 -3.83061e-11)
(-0.0459652 0.00558925 -3.9161e-11)
(-0.0481407 0.00572807 -4.03433e-11)
(-0.0503717 0.00587729 -4.10672e-11)
(-0.0526626 0.00603776 -4.21939e-11)
(-0.0550177 0.00621044 -4.26755e-11)
(-0.0574421 0.00639642 -4.36342e-11)
(-0.0599411 0.00659692 -4.37213e-11)
(-0.0625206 0.00681334 -4.43373e-11)
(-0.0651869 0.00704725 -4.38256e-11)
(-0.0679472 0.00730046 -4.38285e-11)
(-0.0708092 0.00757506 -4.24505e-11)
(-0.0737814 0.00787345 -4.14302e-11)
(-0.0768733 0.00819843 -3.88543e-11)
(-0.0800954 0.00855329 -3.62188e-11)
(-0.0834595 0.00894191 -3.20797e-11)
(-0.0869785 0.00936889 -2.70419e-11)
(-0.0906673 0.00983977 -2.10142e-11)
(-0.0945421 0.0103613 -1.26163e-11)
(-0.0986216 0.0109416 -4.45412e-12)
(-0.102927 0.011591 8.5114e-12)
(-0.107482 0.012322 1.93074e-11)
(-0.112313 0.0131507 3.9054e-11)
(-0.117453 0.0140976 5.4632e-11)
(-0.122936 0.015189 8.644e-11)
(-0.128804 0.016459 1.1212e-10)
(-0.135104 0.0179526 1.6536e-10)
(-0.141893 0.0197287 2.01415e-10)
(-0.149235 0.0218659 2.75699e-10)
(-0.157206 0.0244697 2.7753e-10)
(-0.165896 0.0276828 2.91832e-10)
(-0.175408 0.0317037 1.39961e-10)
(-0.185862 0.0368158 -2.05294e-10)
(-0.197392 0.0434396 -4.89665e-10)
(-0.210131 0.0522141 -1.39615e-09)
(-0.224195 0.0641131 -1.57773e-09)
(-0.239586 0.0806114 -1.79457e-09)
(-0.255994 0.103989 -1.66748e-09)
(-0.273168 0.137869 -3.05669e-10)
(-0.291259 0.186244 1.86565e-10)
(-0.305791 0.246329 1.94507e-09)
(-0.301508 0.304571 3.38884e-09)
(-0.275801 0.343791 3.08138e-09)
(-0.247274 0.371306 2.47109e-09)
(-0.220721 0.389884 1.15083e-09)
(-0.195881 0.402554 3.44652e-10)
(-0.172542 0.411617 -4.96691e-10)
(-0.150521 0.418374 -8.86084e-10)
(-0.129603 0.423543 -1.09334e-09)
(-0.109589 0.427543 -1.10003e-09)
(-0.0903073 0.430641 -9.7325e-10)
(-0.0716054 0.433014 -8.43455e-10)
(-0.053346 0.434782 -6.38664e-10)
(-0.0354048 0.436025 -5.17989e-10)
(-0.0176778 0.436778 -3.35577e-10)
(3.04218e-07 0.437035 -2.54253e-10)
(0.0176784 0.436778 -1.3921e-10)
(0.0354055 0.436025 -1.78387e-11)
(0.0533467 0.434783 -2.58085e-10)
(0.0716061 0.433014 1.83246e-10)
(-0.00889738 0.00893476 -4.08231e-11)
(-0.0106928 0.00897615 -3.5446e-11)
(-0.012497 0.00902524 -2.41122e-11)
(-0.0143115 0.00908219 -2.39708e-11)
(-0.0161379 0.0091472 -2.41154e-11)
(-0.0179778 0.0092205 -2.4514e-11)
(-0.0198329 0.00930236 -2.51081e-11)
(-0.021705 0.00939307 -2.56422e-11)
(-0.0235957 0.00949297 -2.6283e-11)
(-0.0255069 0.00960244 -2.68453e-11)
(-0.0274405 0.0097219 -2.75296e-11)
(-0.0293986 0.00985181 -2.81483e-11)
(-0.0313832 0.0099927 -2.89061e-11)
(-0.0333965 0.0101451 -2.95905e-11)
(-0.0354409 0.0103097 -3.0427e-11)
(-0.0375188 0.0104872 -3.11686e-11)
(-0.0396327 0.0106784 -3.20754e-11)
(-0.0417854 0.0108841 -3.2854e-11)
(-0.0439798 0.0111052 -3.38113e-11)
(-0.046219 0.0113429 -3.45934e-11)
(-0.0485063 0.0115984 -3.55665e-11)
(-0.0508452 0.0118728 -3.63009e-11)
(-0.0532395 0.0121677 -3.72339e-11)
(-0.0556933 0.0124847 -3.78464e-11)
(-0.058211 0.0128256 -3.8655e-11)
(-0.0607973 0.0131925 -3.90423e-11)
(-0.0634573 0.0135875 -3.96034e-11)
(-0.0661966 0.0140134 -3.96274e-11)
(-0.0690212 0.0144729 -3.97655e-11)
(-0.0719378 0.0149693 -3.92477e-11)
(-0.0749535 0.0155064 -3.87188e-11)
(-0.0780763 0.0160884 -3.74382e-11)
(-0.0813148 0.0167201 -3.59129e-11)
(-0.0846785 0.0174071 -3.36173e-11)
(-0.0881781 0.0181558 -3.06771e-11)
(-0.0918251 0.0189736 -2.71211e-11)
(-0.0956325 0.019869 -2.22926e-11)
(-0.0996146 0.0208522 -1.73161e-11)
(-0.103787 0.021935 -1.01603e-11)
(-0.108169 0.0231313 -3.76436e-12)
(-0.112778 0.0244576 6.04648e-12)
(-0.117637 0.0259335 1.38163e-11)
(-0.122771 0.0275829 2.67308e-11)
(-0.128206 0.0294343 3.63507e-11)
(-0.133972 0.0315223 5.37484e-11)
(-0.140102 0.0338896 6.71023e-11)
(-0.146629 0.0365885 9.21154e-11)
(-0.153591 0.039684 1.09653e-10)
(-0.161024 0.0432574 1.41953e-10)
(-0.168964 0.0474113 1.49502e-10)
(-0.177445 0.0522762 1.61799e-10)
(-0.186489 0.0580213 1.24638e-10)
(-0.196102 0.06487 2.62639e-11)
(-0.206257 0.0731248 -5.52177e-11)
(-0.216869 0.0832032 -3.02737e-10)
(-0.227753 0.0956832 -3.89066e-10)
(-0.23855 0.111345 -4.36296e-10)
(-0.248599 0.131158 -4.33065e-10)
(-0.256732 0.156071 -5.48197e-11)
(-0.261159 0.186434 1.57846e-10)
(-0.259825 0.221226 4.1989e-10)
(-0.251089 0.256954 6.07545e-10)
(-0.236042 0.286583 4.64469e-10)
(-0.218114 0.309855 3.6491e-10)
(-0.198949 0.327855 4.54281e-11)
(-0.179422 0.341825 -1.37895e-10)
(-0.160019 0.35282 -3.54778e-10)
(-0.140948 0.361591 -4.44476e-10)
(-0.122273 0.368636 -4.97783e-10)
(-0.103995 0.374289 -4.8796e-10)
(-0.0860823 0.378787 -4.50854e-10)
(-0.0684847 0.382296 -4.08852e-10)
(-0.0511422 0.384936 -3.52033e-10)
(-0.0339925 0.386789 -3.25929e-10)
(-0.0169841 0.387897 -2.90695e-10)
(1.42914e-07 0.388269 -2.86093e-10)
(0.0169844 0.387897 -2.78125e-10)
(0.0339929 0.386789 -2.56875e-10)
(0.0511425 0.384936 -3.9316e-10)
(0.0684851 0.382296 -3.80022e-10)
(-0.00893332 0.0137652 -1.84794e-11)
(-0.0107353 0.0138279 -2.18903e-11)
(-0.0125456 0.0139023 -1.3873e-11)
(-0.0143659 0.0139887 -1.44435e-11)
(-0.0161976 0.0140873 -1.45567e-11)
(-0.0180422 0.0141986 -1.48227e-11)
(-0.0199014 0.0143229 -1.51543e-11)
(-0.0217767 0.0144607 -1.54405e-11)
(-0.0236699 0.0146125 -1.58289e-11)
(-0.0255827 0.0147787 -1.61314e-11)
(-0.0275169 0.0149602 -1.65609e-11)
(-0.0294743 0.0151574 -1.68957e-11)
(-0.0314571 0.0153713 -1.73759e-11)
(-0.0334671 0.0156026 -1.77439e-11)
(-0.0355066 0.0158524 -1.82713e-11)
(-0.0375778 0.0161216 -1.86618e-11)
(-0.0396831 0.0164114 -1.92247e-11)
(-0.0418249 0.016723 -1.96189e-11)
(-0.044006 0.0170579 -2.01969e-11)
(-0.0462292 0.0174177 -2.05658e-11)
(-0.0484973 0.0178039 -2.11256e-11)
(-0.0508137 0.0182187 -2.14261e-11)
(-0.0531815 0.018664 -2.19164e-11)
(-0.0556045 0.0191423 -2.20877e-11)
(-0.0580864 0.0196561 -2.24332e-11)
(-0.0606313 0.0202083 -2.23928e-11)
(-0.0632436 0.0208024 -2.24869e-11)
(-0.0659281 0.0214418 -2.21286e-11)
(-0.0686896 0.0221308 -2.18254e-11)
(-0.0715337 0.0228739 -2.10176e-11)
(-0.0744662 0.0236765 -2.01229e-11)
(-0.0774934 0.0245443 -1.87124e-11)
(-0.0806219 0.0254841 -1.69768e-11)
(-0.083859 0.0265035 -1.48011e-11)
(-0.0872126 0.0276113 -1.19238e-11)
(-0.090691 0.0288175 -8.84185e-12)
(-0.0943032 0.0301334 -4.50212e-12)
(-0.0980588 0.0315723 -4.50908e-13)
(-0.101968 0.0331496 5.62041e-12)
(-0.106042 0.0348828 1.05615e-11)
(-0.110292 0.0367927 1.8495e-11)
(-0.11473 0.0389032 2.41177e-11)
(-0.119368 0.0412425 3.3925e-11)
(-0.124219 0.0438436 4.01221e-11)
(-0.129295 0.0467452 5.19728e-11)
(-0.134608 0.0499928 5.90781e-11)
(-0.140167 0.0536402 7.34538e-11)
(-0.14598 0.0577508 8.15168e-11)
(-0.152049 0.0623992 9.73899e-11)
(-0.158372 0.0676735 1.02416e-10)
(-0.164935 0.0736778 1.10528e-10)
(-0.17171 0.0805352 1.02428e-10)
(-0.178648 0.0883919 7.81898e-11)
(-0.185665 0.0974227 5.20626e-11)
(-0.192629 0.107837 -1.56234e-11)
(-0.199334 0.119883 -5.88805e-11)
(-0.205462 0.133842 -1.04909e-10)
(-0.21054 0.149991 -1.37224e-10)
(-0.213887 0.1685 -1.1789e-10)
(-0.214616 0.18919 -1.15018e-10)
(-0.211852 0.211228 -1.16397e-10)
(-0.205178 0.233053 -1.34871e-10)
(-0.195119 0.252884 -2.20213e-10)
(-0.182756 0.270192 -2.7867e-10)
(-0.168912 0.284969 -3.80413e-10)
(-0.154189 0.297452 -4.28051e-10)
(-0.138985 0.307956 -4.79806e-10)
(-0.12354 0.316768 -4.85903e-10)
(-0.107998 0.324119 -4.82658e-10)
(-0.0924425 0.330191 -4.58738e-10)
(-0.0769188 0.335126 -4.28893e-10)
(-0.0614468 0.339035 -3.9994e-10)
(-0.0460293 0.342003 -3.65575e-10)
(-0.0306601 0.344091 -3.44873e-10)
(-0.0153369 0.345335 -3.23463e-10)
(8.68981e-08 0.34575 -3.12264e-10)
(0.0153371 0.345335 -3.32485e-10)
(0.0306603 0.344091 -1.99817e-10)
(0.0460295 0.342003 -6.14968e-10)
(0.061447 0.339035 -2.83696e-10)
(-0.00877957 0.0185271 -3.15715e-11)
(-0.0105495 0.0186096 -2.5683e-11)
(-0.0123272 0.0187075 -1.81268e-11)
(-0.014114 0.0188213 -1.78071e-11)
(-0.0159113 0.0189513 -1.77782e-11)
(-0.0177204 0.0190979 -1.78501e-11)
(-0.0195428 0.0192616 -1.81101e-11)
(-0.02138 0.0194431 -1.83375e-11)
(-0.0232335 0.0196428 -1.86726e-11)
(-0.0251048 0.0198616 -1.89546e-11)
(-0.0269956 0.0201002 -1.93313e-11)
(-0.0289075 0.0203596 -1.96587e-11)
(-0.0308422 0.0206406 -2.0079e-11)
(-0.0328016 0.0209444 -2.04431e-11)
(-0.0347876 0.0212721 -2.08992e-11)
(-0.036802 0.021625 -2.12864e-11)
(-0.0388469 0.0220046 -2.17645e-11)
(-0.0409245 0.0224125 -2.21558e-11)
(-0.0430369 0.0228504 -2.26345e-11)
(-0.0451866 0.0233202 -2.30021e-11)
(-0.047376 0.023824 -2.34477e-11)
(-0.0496076 0.0243643 -2.37507e-11)
(-0.0518842 0.0249436 -2.41127e-11)
(-0.0542086 0.0255647 -2.42939e-11)
(-0.0565839 0.0262308 -2.45001e-11)
(-0.0590132 0.0269455 -2.44829e-11)
(-0.0614998 0.0277126 -2.44342e-11)
(-0.0640473 0.0285364 -2.41212e-11)
(-0.0666594 0.0294219 -2.36875e-11)
(-0.06934 0.0303743 -2.29615e-11)
(-0.0720931 0.0313998 -2.19793e-11)
(-0.0749229 0.0325049 -2.07093e-11)
(-0.077834 0.0336973 -1.89841e-11)
(-0.080831 0.0349854 -1.70404e-11)
(-0.0839185 0.0363787 -1.43599e-11)
(-0.0871016 0.0378879 -1.16431e-11)
(-0.0903852 0.0395252 -7.81067e-12)
(-0.0937741 0.0413041 -4.30205e-12)
(-0.0972732 0.0432402 7.99623e-13)
(-0.100887 0.0453509 4.97331e-12)
(-0.10462 0.047656 1.12941e-11)
(-0.108475 0.0501781 1.58194e-11)
(-0.112456 0.0529427 2.30817e-11)
(-0.116562 0.0559789 2.7475e-11)
(-0.120793 0.0593195 3.51074e-11)
(-0.125145 0.0630019 3.88929e-11)
(-0.129611 0.0670684 4.62469e-11)
(-0.134178 0.0715666 4.85937e-11)
(-0.138827 0.0765502 5.4107e-11)
(-0.143531 0.0820792 5.31234e-11)
(-0.148251 0.0882201 5.29598e-11)
(-0.152935 0.0950462 4.49419e-11)
(-0.157511 0.102637 3.21929e-11)
(-0.161883 0.111077 1.41848e-11)
(-0.165927 0.120454 -1.49587e-11)
(-0.169474 0.130853 -4.40608e-11)
(-0.17231 0.142343 -8.00784e-11)
(-0.174158 0.154957 -1.15279e-10)
(-0.174683 0.168647 -1.4895e-10)
(-0.173516 0.183212 -1.84159e-10)
(-0.17034 0.198232 -2.22892e-10)
(-0.165028 0.213091 -2.62128e-10)
(-0.157753 0.227168 -3.06587e-10)
(-0.148882 0.240112 -3.42726e-10)
(-0.138783 0.251771 -3.75496e-10)
(-0.127772 0.26212 -3.95737e-10)
(-0.116095 0.271205 -4.04934e-10)
(-0.103937 0.279096 -4.04343e-10)
(-0.0914333 0.285867 -3.95415e-10)
(-0.0786844 0.29159 -3.82326e-10)
(-0.0657634 0.296328 -3.64683e-10)
(-0.0527232 0.300135 -3.4869e-10)
(-0.0396019 0.303056 -3.2862e-10)
(-0.0264285 0.305123 -3.13169e-10)
(-0.013233 0.306359 -2.88772e-10)
(4.07525e-08 0.306772 -2.77213e-10)
(0.0132331 0.306359 -2.78773e-10)
(0.0264286 0.305123 -7.92348e-11)
(0.039602 0.303056 -7.06744e-10)
(0.0527233 0.300135 -8.92411e-12)
(-0.00856108 0.0231865 -1.16054e-11)
(-0.0102858 0.0232869 -1.3631e-11)
(-0.0120174 0.0234062 -8.58195e-12)
(-0.0137571 0.0235447 -8.9925e-12)
(-0.015506 0.0237029 -8.97198e-12)
(-0.0172655 0.0238812 -9.03022e-12)
(-0.0190367 0.0240804 -9.12721e-12)
(-0.0208209 0.024301 -9.20658e-12)
(-0.0226195 0.0245437 -9.36637e-12)
(-0.0244337 0.0248094 -9.47021e-12)
(-0.026265 0.025099 -9.66331e-12)
(-0.0281147 0.0254135 -9.7889e-12)
(-0.0299844 0.0257541 -1.00096e-11)
(-0.0318754 0.0261218 -1.01497e-11)
(-0.0337894 0.0265182 -1.0389e-11)
(-0.0357279 0.0269447 -1.05333e-11)
(-0.0376925 0.0274028 -1.07797e-11)
(-0.0396851 0.0278945 -1.09146e-11)
(-0.0417072 0.0284216 -1.11513e-11)
(-0.0437608 0.0289863 -1.12573e-11)
(-0.0458477 0.029591 -1.14583e-11)
(-0.0479698 0.0302382 -1.15064e-11)
(-0.0501292 0.0309309 -1.16326e-11)
(-0.0523279 0.0316722 -1.15822e-11)
(-0.0545679 0.0324654 -1.15776e-11)
(-0.0568516 0.0333145 -1.13741e-11)
(-0.059181 0.0342235 -1.11624e-11)
(-0.0615585 0.0351972 -1.07371e-11)
(-0.0639864 0.0362405 -1.02185e-11)
(-0.0664669 0.037359 -9.48997e-12)
(-0.0690023 0.0385591 -8.5411e-12)
(-0.0715949 0.0398476 -7.42058e-12)
(-0.0742469 0.041232 -5.8977e-12)
(-0.0769604 0.0427208 -4.30101e-12)
(-0.0797371 0.0443233 -2.05114e-12)
(-0.0825788 0.0460499 8.1369e-14)
(-0.0854867 0.0479121 3.1945e-12)
(-0.0884616 0.0499227 5.8609e-12)
(-0.0915037 0.0520958 9.91201e-12)
(-0.0946124 0.054447 1.30165e-11)
(-0.0977859 0.0569939 1.79618e-11)
(-0.101021 0.0597555 2.12769e-11)
(-0.104314 0.0627532 2.68632e-11)
(-0.107658 0.0660103 2.99931e-11)
(-0.111043 0.0695523 3.57192e-11)
(-0.114456 0.0734072 3.82085e-11)
(-0.117882 0.0776053 4.33429e-11)
(-0.121299 0.0821788 4.4663e-11)
(-0.12468 0.0871623 4.80642e-11)
(-0.127991 0.0925918 4.744e-11)
(-0.131188 0.0985038 4.73715e-11)
(-0.134219 0.104935 4.37607e-11)
(-0.137019 0.11192 3.81233e-11)
(-0.139508 0.119489 3.08848e-11)
(-0.141592 0.127664 1.89335e-11)
(-0.143156 0.136457 8.17471e-12)
(-0.14407 0.145857 -7.95254e-12)
(-0.144183 0.155825 -2.12001e-11)
(-0.143334 0.166278 -3.8686e-11)
(-0.141369 0.177071 -5.29946e-11)
(-0.138168 0.187992 -7.01931e-11)
(-0.133689 0.198775 -8.38898e-11)
(-0.127992 0.209159 -9.89856e-11)
(-0.121208 0.218946 -1.09157e-10)
(-0.113494 0.228012 -1.17312e-10)
(-0.105006 0.236284 -1.20594e-10)
(-0.0958837 0.24373 -1.20186e-10)
(-0.0862479 0.250341 -1.1694e-10)
(-0.0762006 0.256123 -1.10445e-10)
(-0.0658269 0.261087 -1.03853e-10)
(-0.0551977 0.265251 -9.43001e-11)
(-0.0443721 0.268633 -8.69607e-11)
(-0.0333993 0.271249 -7.54952e-11)
(-0.0223226 0.27311 -6.66313e-11)
(-0.0111858 0.274226 -5.29003e-11)
(3.9726e-08 0.274599 -4.09229e-11)
(0.0111859 0.274226 -2.90556e-11)
(0.0223227 0.27311 -8.27018e-12)
(0.0333994 0.271249 -1.8772e-11)
(0.0443722 0.268633 -1.04798e-10)
(-0.00829975 0.0277112 -2.01808e-11)
(-0.00997047 0.0278272 -1.53414e-11)
(-0.0116471 0.0279651 -1.10488e-11)
(-0.0133306 0.0281251 -1.07426e-11)
(-0.0150221 0.0283078 -1.068e-11)
(-0.0167225 0.0285138 -1.06405e-11)
(-0.018433 0.0287436 -1.0729e-11)
(-0.0201545 0.028998 -1.08034e-11)
(-0.0218882 0.0292778 -1.09466e-11)
(-0.0236351 0.0295838 -1.10587e-11)
(-0.0253963 0.0299171 -1.12239e-11)
(-0.0271731 0.0302787 -1.13574e-11)
(-0.0289665 0.0306699 -1.15397e-11)
(-0.0307777 0.0310919 -1.1685e-11)
(-0.0326079 0.0315462 -1.18762e-11)
(-0.0344583 0.0320343 -1.20235e-11)
(-0.0363301 0.032558 -1.22126e-11)
(-0.0382246 0.0331192 -1.23501e-11)
(-0.040143 0.0337198 -1.25216e-11)
(-0.0420867 0.0343623 -1.26316e-11)
(-0.0440568 0.0350489 -1.27617e-11)
(-0.0460547 0.0357825 -1.28183e-11)
(-0.0480816 0.0365658 -1.28722e-11)
(-0.0501389 0.0374021 -1.28391e-11)
(-0.0522278 0.0382948 -1.27678e-11)
(-0.0543495 0.0392478 -1.25963e-11)
(-0.0565052 0.0402652 -1.23348e-11)
(-0.058696 0.0413515 -1.19642e-11)
(-0.0609229 0.0425116 -1.14298e-11)
(-0.0631868 0.043751 -1.07889e-11)
(-0.0654884 0.0450756 -9.88296e-12)
(-0.0678284 0.0464917 -8.89548e-12)
(-0.0702069 0.0480064 -7.50902e-12)
(-0.0726241 0.0496275 -6.10473e-12)
(-0.0750794 0.0513632 -4.13067e-12)
(-0.0775721 0.0532227 -2.26306e-12)
(-0.0801008 0.055216 3.80708e-13)
(-0.0826632 0.0573538 2.70693e-12)
(-0.0852564 0.059648 6.04056e-12)
(-0.0878764 0.0621113 8.73729e-12)
(-0.090518 0.0647573 1.26687e-11)
(-0.0931744 0.0676008 1.55274e-11)
(-0.0958371 0.0706576 1.98236e-11)
(-0.0984957 0.0739446 2.25323e-11)
(-0.101137 0.0774794 2.67143e-11)
(-0.103745 0.0812806 2.88258e-11)
(-0.106301 0.0853671 3.22586e-11)
(-0.108781 0.0897585 3.32977e-11)
(-0.111158 0.0944739 3.51879e-11)
(-0.113398 0.0995315 3.46842e-11)
(-0.115464 0.104948 3.42169e-11)
(-0.11731 0.110738 3.18193e-11)
(-0.118885 0.116912 2.84783e-11)
(-0.120131 0.123472 2.42051e-11)
(-0.120981 0.130416 1.83435e-11)
(-0.121362 0.137728 1.26893e-11)
(-0.121198 0.145379 5.6549e-12)
(-0.120407 0.153323 -5.56393e-13)
(-0.118912 0.16149 -7.39246e-12)
(-0.116645 0.169785 -1.35358e-11)
(-0.113557 0.178091 -1.86999e-11)
(-0.109635 0.186275 -2.33803e-11)
(-0.104901 0.194204 -2.66547e-11)
(-0.0994084 0.201766 -2.94387e-11)
(-0.0932284 0.208871 -2.9634e-11)
(-0.0864393 0.215453 -2.98359e-11)
(-0.0791199 0.221466 -2.69567e-11)
(-0.0713457 0.226878 -2.49777e-11)
(-0.0631866 0.23167 -2.00392e-11)
(-0.0547068 0.23583 -1.69022e-11)
(-0.0459643 0.239353 -1.10354e-11)
(-0.0370115 0.242236 -7.39644e-12)
(-0.027896 0.244479 -9.54293e-13)
(-0.0186623 0.246082 3.70686e-12)
(-0.00935602 0.247046 1.19601e-11)
(3.11271e-08 0.247368 1.73064e-11)
(0.00935608 0.247046 1.98271e-11)
(0.0186624 0.246082 5.36486e-11)
(0.0278961 0.244479 -3.53823e-11)
(0.0370116 0.242236 7.16607e-11)
(-0.00800314 0.0320834 -4.32436e-12)
(-0.00961265 0.0322126 -6.23246e-12)
(-0.011227 0.032366 -3.60825e-12)
(-0.0128471 0.0325441 -3.92662e-12)
(-0.0144737 0.0327474 -3.87863e-12)
(-0.0161076 0.0329764 -3.88155e-12)
(-0.0177497 0.0332317 -3.88092e-12)
(-0.0194008 0.0335142 -3.88104e-12)
(-0.0210617 0.0338247 -3.91993e-12)
(-0.0227334 0.034164 -3.93138e-12)
(-0.0244166 0.0345332 -3.98859e-12)
(-0.0261121 0.0349333 -4.0087e-12)
(-0.0278209 0.0353657 -4.07779e-12)
(-0.0295438 0.0358315 -4.10252e-12)
(-0.0312816 0.0363324 -4.17706e-12)
(-0.0330351 0.0368698 -4.20179e-12)
(-0.0348052 0.0374456 -4.27476e-12)
(-0.0365927 0.0380614 -4.29372e-12)
(-0.0383983 0.0387195 -4.35519e-12)
(-0.0402229 0.0394221 -4.35933e-12)
(-0.0420671 0.0401714 -4.39391e-12)
(-0.0439317 0.0409702 -4.36891e-12)
(-0.0458173 0.0418212 -4.35344e-12)
(-0.0477244 0.0427275 -4.2781e-12)
(-0.0496536 0.0436924 -4.17951e-12)
(-0.0516052 0.0447195 -4.0246e-12)
(-0.0535795 0.0458127 -3.79816e-12)
(-0.0555767 0.0469761 -3.5262e-12)
(-0.0575967 0.0482142 -3.1148e-12)
(-0.0596392 0.049532 -2.68112e-12)
(-0.0617038 0.0509347 -2.01606e-12)
(-0.0637898 0.052428 -1.37193e-12)
(-0.0658958 0.054018 -3.7669e-13)
(-0.0680206 0.0557114 5.24421e-13)
(-0.0701619 0.057515 1.92585e-12)
(-0.0723174 0.0594366 3.11706e-12)
(-0.0744837 0.0614841 4.9842e-12)
(-0.0766568 0.0636663 6.47099e-12)
(-0.078832 0.0659922 8.82519e-12)
(-0.0810033 0.0684714 1.05652e-11)
(-0.0831636 0.0711142 1.33542e-11)
(-0.0853045 0.073931 1.52626e-11)
(-0.087416 0.0769328 1.83607e-11)
(-0.0894861 0.0801307 2.02546e-11)
(-0.0915013 0.0835361 2.3385e-11)
(-0.0934453 0.0871599 2.50585e-11)
(-0.0952996 0.0910131 2.78558e-11)
(-0.0970427 0.0951056 2.90891e-11)
(-0.0986504 0.0994464 3.11357e-11)
(-0.100095 0.104043 3.17561e-11)
(-0.101345 0.108899 3.27031e-11)
(-0.102367 0.114017 3.2655e-11)
(-0.103122 0.119395 3.24063e-11)
(-0.10357 0.125025 3.18288e-11)
(-0.103666 0.130893 3.07209e-11)
(-0.103366 0.136978 2.99518e-11)
(-0.102623 0.143249 2.86637e-11)
(-0.101393 0.149666 2.80964e-11)
(-0.0996363 0.156176 2.72843e-11)
(-0.0973206 0.16272 2.7258e-11)
(-0.0944252 0.169224 2.71875e-11)
(-0.0909447 0.175612 2.77775e-11)
(-0.0868899 0.181809 2.85216e-11)
(-0.0822862 0.187745 2.97659e-11)
(-0.0771697 0.193357 3.13918e-11)
(-0.0715832 0.198597 3.31902e-11)
(-0.0655734 0.203421 3.55969e-11)
(-0.0591881 0.207798 3.76825e-11)
(-0.0524752 0.211702 4.06285e-11)
(-0.0454813 0.215115 4.26419e-11)
(-0.0382511 0.218022 4.58834e-11)
(-0.0308277 0.220413 4.76286e-11)
(-0.0232519 0.222281 5.09088e-11)
(-0.0155636 0.223621 5.2557e-11)
(-0.00780429 0.224427 5.58099e-11)
(2.25032e-08 0.224696 5.66379e-11)
(0.00780433 0.224427 6.27067e-11)
(0.0155637 0.223621 3.78315e-11)
(0.0232519 0.222281 1.20248e-10)
(0.0308277 0.220413 2.13701e-11)
(-0.00767758 0.0362846 -1.17972e-11)
(-0.00922007 0.0364244 -8.07744e-12)
(-0.0107664 0.0365903 -5.9527e-12)
(-0.0123171 0.0367829 -5.64191e-12)
(-0.0138729 0.0370025 -5.56875e-12)
(-0.0154344 0.0372499 -5.47937e-12)
(-0.0170022 0.0375255 -5.47919e-12)
(-0.0185769 0.0378302 -5.46703e-12)
(-0.0201591 0.0381647 -5.4976e-12)
(-0.0217495 0.03853 -5.50884e-12)
(-0.0233486 0.0389271 -5.54844e-12)
(-0.0249569 0.039357 -5.57008e-12)
(-0.0265752 0.039821 -5.6144e-12)
(-0.0282038 0.0403203 -5.63998e-12)
(-0.0298432 0.0408563 -5.6833e-12)
(-0.0314941 0.0414306 -5.70757e-12)
(-0.0331568 0.0420448 -5.74313e-12)
(-0.0348317 0.0427008 -5.76015e-12)
(-0.0365193 0.0434004 -5.77862e-12)
(-0.0382197 0.0441457 -5.77961e-12)
(-0.0399333 0.044939 -5.76727e-12)
(-0.0416603 0.0457828 -5.73892e-12)
(-0.0434006 0.0466795 -5.6761e-12)
(-0.0451544 0.0476321 -5.59945e-12)
(-0.0469213 0.0486434 -5.45941e-12)
(-0.0487013 0.0497168 -5.3086e-12)
(-0.0504938 0.0508557 -5.05505e-12)
(-0.0522981 0.0520637 -4.79734e-12)
(-0.0541135 0.0533448 -4.38785e-12)
(-0.0559389 0.0547032 -3.9873e-12)
(-0.0577728 0.0561433 -3.37229e-12)
(-0.0596136 0.05767 -2.78804e-12)
(-0.0614591 0.0592882 -1.91436e-12)
(-0.0633069 0.0610034 -1.10875e-12)
(-0.0651539 0.0628211 7.30349e-14)
(-0.0669966 0.0647472 1.1254e-12)
(-0.0688307 0.0667879 2.64726e-12)
(-0.0706514 0.0689496 3.95361e-12)
(-0.0724528 0.0712391 5.81466e-12)
(-0.0742284 0.0736631 7.34268e-12)
(-0.0759704 0.0762285 9.51134e-12)
(-0.0776701 0.0789423 1.12028e-11)
(-0.0793173 0.0818115 1.35676e-11)
(-0.0809007 0.0848428 1.53011e-11)
(-0.0824072 0.0880424 1.76915e-11)
(-0.0838223 0.0914163 1.93253e-11)
(-0.0851298 0.0949693 2.15244e-11)
(-0.0863113 0.0987054 2.29115e-11)
(-0.087347 0.102627 2.47001e-11)
(-0.088215 0.106735 2.57296e-11)
(-0.0888914 0.111028 2.69621e-11)
(-0.0893509 0.115501 2.76027e-11)
(-0.0895664 0.120147 2.82931e-11)
(-0.08951 0.124954 2.86244e-11)
(-0.089153 0.129907 2.899e-11)
(-0.0884669 0.134984 2.92001e-11)
(-0.0874245 0.14016 2.95929e-11)
(-0.0860006 0.145402 2.98888e-11)
(-0.0841738 0.150673 3.05729e-11)
(-0.081928 0.155931 3.11024e-11)
(-0.0792537 0.161128 3.21212e-11)
(-0.0761495 0.166217 3.27955e-11)
(-0.0726219 0.171149 3.43305e-11)
(-0.0686855 0.175877 3.54005e-11)
(-0.0643611 0.180359 3.71183e-11)
(-0.0596748 0.184557 3.83073e-11)
(-0.0546559 0.188438 4.02124e-11)
(-0.0493364 0.191974 4.14418e-11)
(-0.0437496 0.195141 4.34368e-11)
(-0.0379294 0.197921 4.45567e-11)
(-0.03191 0.200297 4.64905e-11)
(-0.0257253 0.202257 4.73967e-11)
(-0.0194087 0.203793 4.89138e-11)
(-0.0129939 0.204895 4.95695e-11)
(-0.00651606 0.20556 5.00274e-11)
(2.2652e-08 0.205782 5.02313e-11)
(0.0065161 0.20556 5.00947e-11)
(0.012994 0.204895 3.30475e-11)
(0.0194087 0.203793 9.01053e-11)
(0.0257253 0.202257 3.84892e-11)
(-0.00732938 0.0403014 2.77861e-13)
(-0.00880034 0.0404492 -1.5334e-12)
(-0.0102741 0.0406246 -4.48416e-13)
(-0.011751 0.0408281 -6.86091e-13)
(-0.0132316 0.04106 -6.37913e-13)
(-0.0147162 0.041321 -6.30421e-13)
(-0.0162054 0.0416116 -5.93757e-13)
(-0.0176994 0.0419326 -5.68189e-13)
(-0.0191987 0.0422848 -5.50267e-13)
(-0.0207037 0.042669 -5.27493e-13)
(-0.0222147 0.0430862 -5.18501e-13)
(-0.0237319 0.0435374 -4.99791e-13)
(-0.0252558 0.0440236 -4.95761e-13)
(-0.0267865 0.0445462 -4.80737e-13)
(-0.0283244 0.0451064 -4.78318e-13)
(-0.0298694 0.0457057 -4.66487e-13)
(-0.0314219 0.0463456 -4.62335e-13)
(-0.0329818 0.0470277 -4.52844e-13)
(-0.0345492 0.0477539 -4.42264e-13)
(-0.0361239 0.0485259 -4.32747e-13)
(-0.0377059 0.0493459 -4.08373e-13)
(-0.0392948 0.0502159 -3.93963e-13)
(-0.0408904 0.0511384 -3.45074e-13)
(-0.042492 0.0521157 -3.19731e-13)
(-0.0440991 0.0531505 -2.3675e-13)
(-0.0457109 0.0542455 -1.83373e-13)
(-0.0473264 0.0554038 -2.33741e-14)
(-0.0489445 0.0566283 8.66502e-14)
(-0.0505636 0.0579224 3.33724e-13)
(-0.0521822 0.0592895 4.93903e-13)
(-0.0537983 0.0607333 8.59893e-13)
(-0.0554095 0.0622576 1.11233e-12)
(-0.0570133 0.0638663 1.63641e-12)
(-0.0586065 0.0655635 2.00329e-12)
(-0.0601857 0.0673536 2.71967e-12)
(-0.0617467 0.0692408 3.22462e-12)
(-0.0632849 0.0712296 4.17506e-12)
(-0.0647952 0.0733246 4.86183e-12)
(-0.0662716 0.0755302 5.97785e-12)
(-0.0677074 0.0778511 6.75126e-12)
(-0.0690952 0.0802915 8.12034e-12)
(-0.0704267 0.0828556 9.0314e-12)
(-0.0716924 0.0855474 1.05713e-11)
(-0.0728822 0.0883702 1.15649e-11)
(-0.0739846 0.091327 1.31951e-11)
(-0.0749873 0.09442 1.42163e-11)
(-0.0758766 0.0976505 1.58366e-11)
(-0.0766379 0.101019 1.68302e-11)
(-0.0772554 0.104523 1.83419e-11)
(-0.0777124 0.108162 1.92678e-11)
(-0.0779912 0.111929 2.06081e-11)
(-0.0780734 0.115819 2.14588e-11)
(-0.0779401 0.119821 2.26336e-11)
(-0.0775723 0.123924 2.344e-11)
(-0.0769514 0.128113 2.45314e-11)
(-0.0760593 0.13237 2.53582e-11)
(-0.0748794 0.136674 2.64815e-11)
(-0.0733972 0.140998 2.73874e-11)
(-0.0716009 0.145317 2.86194e-11)
(-0.0694822 0.1496 2.96261e-11)
(-0.0670368 0.153814 3.09612e-11)
(-0.0642652 0.157927 3.20397e-11)
(-0.0611725 0.161905 3.34371e-11)
(-0.0577682 0.165716 3.45503e-11)
(-0.0540663 0.169329 3.59348e-11)
(-0.0500838 0.172717 3.69959e-11)
(-0.045841 0.175854 3.831e-11)
(-0.0413601 0.178717 3.92574e-11)
(-0.0366652 0.181287 4.04823e-11)
(-0.0317815 0.183547 4.12123e-11)
(-0.026735 0.185483 4.22717e-11)
(-0.0215523 0.187083 4.29097e-11)
(-0.0162602 0.188337 4.3587e-11)
(-0.010886 0.189239 4.34333e-11)
(-0.00545868 0.189783 4.3081e-11)
(1.02962e-08 0.189965 4.12936e-11)
(0.0054587 0.189783 4.32824e-11)
(0.010886 0.189239 2.16109e-11)
(0.0162602 0.188337 8.30731e-11)
(0.0215523 0.187083 2.84625e-11)
(-0.00696472 0.0441235 -6.10632e-12)
(-0.00836095 0.0442768 -3.28008e-12)
(-0.00975895 0.0444587 -2.58479e-12)
(-0.011159 0.0446695 -2.2951e-12)
(-0.0125613 0.0449098 -2.2368e-12)
(-0.0139662 0.0451799 -2.14598e-12)
(-0.0153739 0.0454806 -2.11249e-12)
(-0.0167846 0.0458124 -2.06788e-12)
(-0.0181984 0.0461761 -2.0447e-12)
(-0.0196155 0.0465724 -2.01183e-12)
(-0.0210361 0.0470023 -1.98988e-12)
(-0.0224603 0.0474667 -1.96167e-12)
(-0.0238881 0.0479665 -1.93925e-12)
(-0.0253195 0.048503 -1.91369e-12)
(-0.0267545 0.0490772 -1.88836e-12)
(-0.028193 0.0496906 -1.86443e-12)
(-0.0296349 0.0503444 -1.83311e-12)
(-0.0310799 0.05104 -1.80951e-12)
(-0.0325277 0.0517792 -1.76785e-12)
(-0.0339781 0.0525634 -1.7418e-12)
(-0.0354304 0.0533946 -1.68329e-12)
(-0.0368841 0.0542745 -1.64959e-12)
(-0.0383386 0.0552051 -1.5649e-12)
(-0.0397929 0.0561886 -1.51561e-12)
(-0.0412461 0.057227 -1.39257e-12)
(-0.042697 0.0583228 -1.3168e-12)
(-0.0441443 0.0594782 -1.14152e-12)
(-0.0455865 0.0606959 -1.02817e-12)
(-0.0470218 0.0619785 -7.74072e-13)
(-0.0484481 0.0633287 -5.83574e-13)
(-0.0498632 0.0647493 -2.24851e-13)
(-0.0512644 0.0662432 3.30603e-14)