/*--------------------------------*- C++ -*----------------------------------*\
| =========                 |                                                 |
| \\      /  F ield         | OpenFOAM: The Open Source CFD Toolbox           |
|  \\    /   O peration     | Version:  2306                                  |
|   \\  /    A nd           | Website:  www.openfoam.com                      |
|    \\/     M anipulation  |                                                 |
\*---------------------------------------------------------------------------*/
FoamFile
{
    version     2.0;
    format      ascii;
    arch        "LSB;label=32;scalar=64";
    class       volScalarField;
    location    "25";
    object      p;
}
// * * * * * * * * * * * * * * * * * * * * * * * * * * * * * * * * * * * * * //

dimensions      [1 -1 -2 0 0 0 0];

internalField   nonuniform List<scalar> 
14400
(
0.0116393
0.0115288
0.0113789
0.0111789
0.010912
0.0105365
0.00997568
0.009375
0.00951573
0.00642148
-0.026249
-0.0535772
-0.0661574
-0.0644951
-0.0579357
-0.0521763
-0.0477094
-0.0439742
-0.0407254
-0.0378743
-0.0353605
-0.0331357
-0.0311615
-0.0294059
-0.0278413
-0.0264436
-0.025192
-0.0240684
-0.0230571
-0.0221445
-0.0213189
-0.0205702
-0.0198894
-0.019269
-0.0187024
-0.0181838
-0.0177082
-0.0172711
-0.0168688
-0.0164978
-0.0161552
-0.0158384
-0.015545
-0.015273
-0.0150205
-0.014786
-0.014568
-0.0143652
-0.0141765
-0.0140007
-0.013837
-0.0136846
-0.0135426
-0.0134104
-0.0132874
-0.013173
-0.0130667
-0.0129681
-0.0128767
-0.0127922
-0.0127143
-0.0126425
-0.0125768
-0.0125167
-0.0124621
-0.0124129
-0.0123687
-0.0123296
-0.0122952
-0.0122656
-0.0122407
-0.0122203
-0.0122044
-0.0121931
-0.0121862
-0.0121839
-0.0121866
-0.012194
-0.0122058
-0.0122221
0.00301984
0.00253326
0.00189098
0.00104703
-6.95849e-05
-0.00157811
-0.00367877
-0.00664762
-0.0111594
-0.0206954
-0.0393476
-0.0445269
-0.0439807
-0.0427011
-0.0409026
-0.0386975
-0.0364505
-0.0343153
-0.0323297
-0.0305047
-0.0288393
-0.0273263
-0.025955
-0.0247136
-0.0235902
-0.0225732
-0.0216519
-0.0208162
-0.0200571
-0.0193663
-0.0187367
-0.0181617
-0.0176357
-0.0171534
-0.0167106
-0.0163032
-0.0159278
-0.0155813
-0.015261
-0.0149644
-0.0146896
-0.0144346
-0.0141976
-0.0139773
-0.0137723
-0.0135813
-0.0134033
-0.0132373
-0.0130826
-0.0129381
-0.0128034
-0.0126777
-0.0125604
-0.0124511
-0.0123492
-0.0122544
-0.0121661
-0.0120841
-0.0120081
-0.0119377
-0.0118727
-0.0118129
-0.011758
-0.0117078
-0.0116622
-0.011621
-0.011584
-0.0115512
-0.0115224
-0.0114975
-0.0114765
-0.0114593
-0.0114459
-0.0114361
-0.0114299
-0.0114278
-0.0114303
-0.011437
-0.0114472
-0.0114612
0.00060715
0.000104991
-0.000530953
-0.00131711
-0.00227341
-0.0034272
-0.00482582
-0.00651601
-0.00842303
-0.0105806
-0.0139055
-0.0171484
-0.0195669
-0.0209756
-0.0216732
-0.0219441
-0.0219403
-0.0217484
-0.0214274
-0.0210209
-0.0205611
-0.0200715
-0.019569
-0.0190657
-0.0185703
-0.0180885
-0.0176243
-0.0171802
-0.0167575
-0.0163569
-0.0159783
-0.0156215
-0.0152857
-0.0149703
-0.0146742
-0.0143965
-0.0141363
-0.0138923
-0.0136638
-0.0134497
-0.0132491
-0.0130611
-0.012885
-0.01272
-0.0125653
-0.0124203
-0.0122845
-0.0121571
-0.0120377
-0.0119259
-0.0118211
-0.011723
-0.0116311
-0.0115452
-0.011465
-0.01139
-0.0113201
-0.0112551
-0.0111946
-0.0111385
-0.0110866
-0.0110387
-0.0109947
-0.0109544
-0.0109178
-0.0108846
-0.0108548
-0.0108283
-0.010805
-0.0107849
-0.0107678
-0.0107538
-0.0107428
-0.0107346
-0.0107293
-0.0107275
-0.0107298
-0.0107355
-0.0107441
-0.0107556
0.00330937
0.00292976
0.0024522
0.00186696
0.00116141
0.000319105
-0.000682639
-0.00187156
-0.00326065
-0.00485237
-0.00671455
-0.00861735
-0.0103013
-0.0116592
-0.0127137
-0.0135117
-0.0140913
-0.014488
-0.0147362
-0.0148665
-0.0149049
-0.0148727
-0.0147876
-0.0146634
-0.0145115
-0.0143405
-0.0141573
-0.0139671
-0.013774
-0.0135809
-0.0133901
-0.0132032
-0.0130214
-0.0128455
-0.0126761
-0.0125133
-0.0123575
-0.0122086
-0.0120667
-0.0119315
-0.0118029
-0.0116808
-0.011565
-0.0114551
-0.011351
-0.0112525
-0.0111593
-0.0110712
-0.010988
-0.0109095
-0.0108354
-0.0107656
-0.0106999
-0.0106381
-0.0105801
-0.0105256
-0.0104747
-0.010427
-0.0103825
-0.0103412
-0.0103028
-0.0102672
-0.0102345
-0.0102044
-0.010177
-0.0101521
-0.0101297
-0.0101097
-0.0100921
-0.0100768
-0.0100638
-0.0100531
-0.0100446
-0.0100383
-0.0100341
-0.0100326
-0.0100345
-0.0100392
-0.010046
-0.0100549
0.0069483
0.00663084
0.00623184
0.00574441
0.0051603
0.00447002
0.00366332
0.00273039
0.00166512
0.000468534
-0.000843523
-0.00219066
-0.00349773
-0.00471485
-0.00581464
-0.00678535
-0.00762555
-0.00834055
-0.00893972
-0.00943436
-0.00983647
-0.0101579
-0.0104098
-0.0106026
-0.0107453
-0.0108462
-0.0109124
-0.0109499
-0.0109642
-0.0109596
-0.0109399
-0.0109083
-0.0108674
-0.0108194
-0.0107662
-0.0107093
-0.0106498
-0.0105887
-0.010527
-0.0104652
-0.0104038
-0.0103433
-0.0102839
-0.010226
-0.0101698
-0.0101153
-0.0100627
-0.010012
-0.00996341
-0.00991681
-0.00987225
-0.00982973
-0.00978925
-0.00975078
-0.0097143
-0.00967978
-0.00964719
-0.00961649
-0.00958765
-0.00956064
-0.00953541
-0.00951194
-0.0094902
-0.00947014
-0.00945175
-0.00943499
-0.00941983
-0.00940626
-0.00939425
-0.00938377
-0.00937481
-0.00936736
-0.0093614
-0.00935687
-0.00935373
-0.00935262
-0.00935417
-0.00935775
-0.00936272
-0.00936914
0.00802168
0.00771581
0.0073387
0.00688685
0.00635658
0.00574439
0.00504768
0.00426578
0.00340154
0.00246293
0.00146578
0.000440695
-0.000579418
-0.00156649
-0.00249978
-0.00336572
-0.00415674
-0.00486992
-0.00550581
-0.00606741
-0.00655926
-0.00698683
-0.00735599
-0.00767267
-0.00794262
-0.00817128
-0.0083637
-0.00852445
-0.00865769
-0.00876711
-0.00885599
-0.00892721
-0.00898331
-0.0090265
-0.00905872
-0.00908164
-0.00909671
-0.00910518
-0.00910814
-0.00910652
-0.00910113
-0.00909265
-0.00908168
-0.00906871
-0.0090542
-0.0090385
-0.00902193
-0.00900477
-0.00898723
-0.00896952
-0.00895181
-0.00893422
-0.00891688
-0.00889989
-0.00888333
-0.00886727
-0.00885177
-0.00883688
-0.00882263
-0.00880907
-0.00879621
-0.00878408
-0.0087727
-0.00876207
-0.00875222
-0.00874314
-0.00873485
-0.00872735
-0.00872063
-0.00871471
-0.00870958
-0.00870525
-0.0087017
-0.0086989
-0.00869682
-0.00869607
-0.00869725
-0.00869976
-0.00870299
-0.00870697
0.0085301
0.00825484
0.00791974
0.00752336
0.00706454
0.00654273
0.00595836
0.00531342
0.00461215
0.00386162
0.00307245
0.00225936
0.00143876
0.00062628
-0.000164656
-0.000923309
-0.0016417
-0.00231445
-0.00293841
-0.00351235
-0.00403648
-0.00451215
-0.00494148
-0.00532716
-0.00567215
-0.00597962
-0.00625273
-0.00649461
-0.00670824
-0.00689647
-0.00706191
-0.00720702
-0.007334
-0.0074449
-0.00754154
-0.00762557
-0.00769846
-0.00776153
-0.00781596
-0.00786278
-0.00790292
-0.00793721
-0.00796638
-0.00799105
-0.0080118
-0.00802914
-0.0080435
-0.00805527
-0.00806479
-0.00807238
-0.00807829
-0.00808277
-0.00808601
-0.00808821
-0.00808953
-0.0080901
-0.00809005
-0.0080895
-0.00808853
-0.00808723
-0.00808569
-0.00808396
-0.0080821
-0.00808016
-0.00807818
-0.00807621
-0.00807427
-0.00807239
-0.0080706
-0.00806892
-0.00806735
-0.00806592
-0.00806464
-0.00806347
-0.00806238
-0.00806197
-0.0080628
-0.00806429
-0.00806587
-0.00806758
0.008428
0.00817982
0.0078813
0.00753237
0.00713339
0.00668534
0.00618998
0.00565014
0.00506998
0.00445512
0.00381277
0.00315164
0.00248117
0.00181069
0.00114883
0.000503085
-0.000120389
-0.000716797
-0.00128266
-0.0018157
-0.00231467
-0.00277917
-0.0032095
-0.00360651
-0.00397144
-0.00430582
-0.00461134
-0.00488985
-0.00514319
-0.00537323
-0.0055818
-0.00577064
-0.00594143
-0.00609576
-0.00623508
-0.00636079
-0.00647413
-0.00657628
-0.00666831
-0.00675119
-0.00682582
-0.00689298
-0.00695343
-0.00700782
-0.00705674
-0.00710075
-0.00714032
-0.0071759
-0.00720788
-0.00723662
-0.00726244
-0.00728562
-0.00730642
-0.00732509
-0.00734181
-0.00735679
-0.0073702
-0.00738217
-0.00739285
-0.00740236
-0.0074108
-0.00741828
-0.00742488
-0.00743067
-0.00743573
-0.00744011
-0.00744386
-0.00744704
-0.00744968
-0.00745181
-0.00745346
-0.00745465
-0.00745542
-0.00745572
-0.00745555
-0.00745545
-0.00745594
-0.00745651
-0.0074566
-0.00745623
0.00804729
0.0078306
0.00757212
0.00727245
0.00693256
0.00655393
0.00613856
0.00568915
0.00520912
0.00470268
0.00417479
0.00363105
0.00307741
0.00251985
0.0019641
0.00141541
0.000878393
0.000356933
-0.000145819
-0.000627437
-0.00108618
-0.0015209
-0.00193101
-0.00231634
-0.00267711
-0.00301384
-0.00332727
-0.00361833
-0.00388804
-0.00413754
-0.00436796
-0.00458051
-0.00477633
-0.00495658
-0.00512238
-0.00527477
-0.00541477
-0.00554334
-0.00566137
-0.00576969
-0.0058691
-0.00596032
-0.006044
-0.00612078
-0.00619121
-0.00625583
-0.00631511
-0.00636949
-0.00641937
-0.00646512
-0.00650708
-0.00654555
-0.00658081
-0.00661311
-0.00664269
-0.00666975
-0.00669448
-0.00671707
-0.00673766
-0.00675639
-0.00677341
-0.00678881
-0.00680271
-0.0068152
-0.00682636
-0.00683627
-0.00684499
-0.00685259
-0.0068591
-0.00686458
-0.00686906
-0.00687257
-0.00687514
-0.00687675
-0.00687739
-0.00687756
-0.00687776
-0.00687749
-0.00687625
-0.00687405
0.00751888
0.00733228
0.00711098
0.00685584
0.00656801
0.00624901
0.00590074
0.00552551
0.00512606
0.00470557
0.00426758
0.00381598
0.00335479
0.00288811
0.00241991
0.00195393
0.00149359
0.0010419
0.000601485
0.000174486
-0.000237365
-0.00063275
-0.00101073
-0.0013707
-0.00171236
-0.00203565
-0.00234073
-0.00262794
-0.00289774
-0.00315072
-0.00338753
-0.00360888
-0.00381553
-0.00400824
-0.00418778
-0.00435491
-0.00451039
-0.00465495
-0.00478927
-0.00491405
-0.00502991
-0.00513746
-0.00523727
-0.00532987
-0.00541578
-0.00549545
-0.00556933
-0.00563782
-0.00570129
-0.0057601
-0.00581458
-0.00586501
-0.00591167
-0.00595482
-0.00599469
-0.0060315
-0.00606543
-0.00609668
-0.0061254
-0.00615175
-0.00617586
-0.00619786
-0.00621786
-0.00623596
-0.00625225
-0.00626683
-0.00627975
-0.00629109
-0.0063009
-0.00630923
-0.00631612
-0.00632161
-0.00632572
-0.00632846
-0.0063298
-0.00633021
-0.00633014
-0.00632915
-0.00632676
-0.00632299
0.00692933
0.00677041
0.00658266
0.00636698
0.00612448
0.00585655
0.00556481
0.00525116
0.00491777
0.00456703
0.00420158
0.00382419
0.00343775
0.00304517
0.0026493
0.0022529
0.00185852
0.00146851
0.00108495
0.00070969
0.000344258
-1.0063e-05
-0.000352259
-0.000681559
-0.000997414
-0.00129948
-0.00158758
-0.0018617
-0.00212195
-0.00236855
-0.0026018
-0.00282209
-0.00302984
-0.00322552
-0.00340964
-0.00358269
-0.00374522
-0.00389773
-0.00404076
-0.0041748
-0.00430035
-0.00441789
-0.00452789
-0.00463077
-0.00472697
-0.00481687
-0.00490086
-0.00497929
-0.00505249
-0.00512079
-0.00518446
-0.00524379
-0.00529902
-0.00535041
-0.00539817
-0.0054425
-0.0054836
-0.00552163
-0.00555677
-0.00558916
-0.00561893
-0.00564622
-0.00567113
-0.00569377
-0.00571424
-0.00573261
-0.00574897
-0.00576338
-0.00577589
-0.00578657
-0.00579546
-0.00580259
-0.00580799
-0.00581166
-0.00581359
-0.00581421
-0.00581391
-0.0058123
-0.00580895
-0.00580386
0.00632957
0.00619501
0.00603643
0.00585466
0.00565068
0.00542568
0.00518101
0.00491819
0.00463893
0.00434506
0.00403857
0.00372151
0.00339603
0.00306427
0.00272835
0.00239033
0.00205217
0.00171569
0.00138258
0.00105433
0.000732269
0.000417552
0.000111143
-0.000186163
-0.000473735
-0.000751095
-0.0010179
-0.00127394
-0.00151911
-0.00175341
-0.0019769
-0.00218973
-0.00239211
-0.00258428
-0.00276655
-0.00293921
-0.00310261
-0.00325711
-0.00340306
-0.00354083
-0.00367078
-0.00379327
-0.00390865
-0.00401728
-0.00411948
-0.00421558
-0.00430588
-0.00439069
-0.00447028
-0.00454492
-0.00461488
-0.00468038
-0.00474166
-0.00479893
-0.00485238
-0.00490221
-0.00494859
-0.00499168
-0.00503163
-0.00506859
-0.00510268
-0.00513402
-0.00516272
-0.00518888
-0.00521259
-0.00523394
-0.00525299
-0.00526982
-0.00528448
-0.00529703
-0.0053075
-0.00531594
-0.00532237
-0.00532679
-0.00532921
-0.00532999
-0.0053295
-0.00532738
-0.00532324
-0.0053171
0.00574777
0.00563412
0.00550039
0.00534729
0.00517566
0.00498648
0.00478085
0.00455998
0.00432521
0.00407798
0.00381978
0.0035522
0.00327685
0.00299535
0.00270932
0.00242033
0.00212991
0.00183948
0.0015504
0.0012639
0.000981085
0.000702965
0.00043041
0.00016417
-9.5124e-05
-0.000346952
-0.000590903
-0.000826664
-0.00105401
-0.0012728
-0.00148297
-0.00168451
-0.00187746
-0.00206193
-0.00223806
-0.002406
-0.00256597
-0.00271816
-0.00286283
-0.00300021
-0.00313055
-0.00325411
-0.00337116
-0.00348194
-0.00358672
-0.00368574
-0.00377925
-0.00386748
-0.00395067
-0.00402904
-0.00410279
-0.00417213
-0.00423726
-0.00429835
-0.00435558
-0.00440911
-0.0044591
-0.00450569
-0.00454902
-0.00458921
-0.00462638
-0.00466065
-0.0046921
-0.00472084
-0.00474695
-0.0047705
-0.00479157
-0.00481021
-0.00482648
-0.00484044
-0.00485211
-0.00486155
-0.00486877
-0.00487377
-0.00487656
-0.00487747
-0.00487682
-0.0048743
-0.00486956
-0.0048626
0.00519895
0.00510297
0.00499014
0.00486105
0.0047164
0.00455697
0.00438365
0.00419742
0.00399933
0.00379048
0.00357206
0.00334528
0.00311139
0.00287163
0.00262727
0.00237953
0.00212959
0.00187861
0.00162767
0.00137777
0.00112986
0.000884774
0.00064329
0.000406083
0.000173747
-5.32079e-05
-0.000274354
-0.000489338
-0.00069788
-0.000899763
-0.00109484
-0.001283
-0.00146419
-0.00163842
-0.00180571
-0.00196612
-0.00211975
-0.00226671
-0.00240714
-0.00254118
-0.00266899
-0.00279076
-0.00290665
-0.00301686
-0.00312156
-0.00322094
-0.00331518
-0.00340448
-0.003489
-0.00356893
-0.00364442
-0.00371565
-0.00378278
-0.00384595
-0.00390532
-0.00396101
-0.00401317
-0.00406191
-0.00410735
-0.00414961
-0.00418878
-0.00422497
-0.00425826
-0.00428873
-0.00431646
-0.00434153
-0.00436398
-0.00438389
-0.00440129
-0.00441624
-0.00442877
-0.00443891
-0.0044467
-0.00445212
-0.00445519
-0.0044562
-0.00445543
-0.0044526
-0.00444741
-0.00443986
0.00469017
0.004609
0.00451363
0.00440454
0.00428229
0.00414753
0.00400097
0.00384337
0.00367558
0.00349846
0.00331294
0.00311998
0.00292054
0.00271561
0.00250617
0.00229319
0.00207761
0.00186037
0.00164232
0.00142431
0.0012071
0.000991436
0.000777961
0.000567282
0.000359936
0.0001564
-4.29115e-05
-0.00023764
-0.000427484
-0.000612195
-0.000791574
-0.000965466
-0.00113376
-0.00129638
-0.00145329
-0.00160448
-0.00174996
-0.00188977
-0.00202398
-0.00215267
-0.00227591
-0.00239383
-0.00250653
-0.00261413
-0.00271677
-0.00281456
-0.00290765
-0.00299616
-0.00308023
-0.00316
-0.00323558
-0.00330713
-0.00337475
-0.00343857
-0.0034987
-0.00355527
-0.00360837
-0.00365812
-0.00370461
-0.00374792
-0.00378816
-0.00382541
-0.00385973
-0.0038912
-0.00391989
-0.00394585
-0.00396915
-0.00398983
-0.00400794
-0.00402351
-0.00403659
-0.00404719
-0.00405534
-0.00406104
-0.0040643
-0.00406538
-0.00406451
-0.00406146
-0.00405597
-0.00404802
0.00422377
0.00415496
0.00407412
0.00398165
0.00387801
0.00376371
0.00363932
0.00350545
0.00336278
0.00321198
0.0030538
0.00288898
0.0027183
0.00254253
0.00236245
0.00217884
0.00199246
0.00180406
0.00161434
0.00142399
0.00123366
0.00104396
0.000855462
0.000668682
0.000484102
0.000302155
0.000123229
-5.23346e-05
-0.000224235
-0.000392213
-0.000556051
-0.000715567
-0.000870615
-0.00102108
-0.00116687
-0.00130794
-0.00144425
-0.00157578
-0.00170255
-0.00182458
-0.00194191
-0.00205458
-0.00216266
-0.00226623
-0.00236536
-0.00246014
-0.00255065
-0.00263699
-0.00271925
-0.00279753
-0.00287193
-0.00294253
-0.00300945
-0.00307276
-0.00313257
-0.00318896
-0.00324202
-0.00329182
-0.00333846
-0.003382
-0.00342252
-0.00346009
-0.00349477
-0.00352661
-0.00355568
-0.00358203
-0.0036057
-0.00362674
-0.00364518
-0.00366106
-0.0036744
-0.00368524
-0.00369358
-0.00369944
-0.00370282
-0.00370393
-0.003703
-0.00369981
-0.00369414
-0.00368597
0.00379937
0.00374085
0.00367211
0.00359347
0.00350529
0.00340799
0.00330202
0.00318787
0.00306608
0.00293721
0.00280182
0.00266053
0.00251394
0.00236268
0.00220738
0.00204865
0.00188713
0.0017234
0.00155806
0.00139167
0.00122478
0.0010579
0.000891511
0.000726072
0.000562003
0.000399689
0.000239484
8.17073e-05
-7.33563e-05
-0.000225453
-0.000374361
-0.000519888
-0.00066187
-0.000800172
-0.00093468
-0.00106531
-0.00119199
-0.00131467
-0.00143332
-0.00154794
-0.00165851
-0.00176505
-0.00186759
-0.00196616
-0.0020608
-0.00215156
-0.00223848
-0.00232164
-0.00240109
-0.00247689
-0.00254913
-0.00261785
-0.00268313
-0.00274505
-0.00280366
-0.00285904
-0.00291126
-0.00296036
-0.00300643
-0.00304952
-0.00308968
-0.00312697
-0.00316144
-0.00319314
-0.00322212
-0.00324841
-0.00327206
-0.0032931
-0.00331156
-0.00332747
-0.00334086
-0.00335174
-0.00336014
-0.00336605
-0.00336947
-0.0033706
-0.00336963
-0.00336636
-0.00336061
-0.00335238
0.0034151
0.00336517
0.00330651
0.00323938
0.00316408
0.00308093
0.00299031
0.00289262
0.00278827
0.00267771
0.00256142
0.00243986
0.00231354
0.00218296
0.00204862
0.00191104
0.00177071
0.00162812
0.00148378
0.00133813
0.00119165
0.00104475
0.000897864
0.000751374
0.000605647
0.000461027
0.00031783
0.000176347
3.6843e-05
-0.000100442
-0.000235292
-0.000367516
-0.000496945
-0.000623433
-0.000746854
-0.000867103
-0.000984092
-0.00109775
-0.00120802
-0.00131486
-0.00141825
-0.00151817
-0.00161462
-0.00170759
-0.0017971
-0.00188317
-0.00196583
-0.00204511
-0.00212104
-0.00219367
-0.00226302
-0.00232916
-0.00239213
-0.00245197
-0.00250874
-0.00256247
-0.00261322
-0.00266104
-0.00270597
-0.00274806
-0.00278735
-0.00282388
-0.0028577
-0.00288884
-0.00291733
-0.00294322
-0.00296652
-0.00298727
-0.0030055
-0.00302122
-0.00303446
-0.00304524
-0.00305356
-0.00305943
-0.00306284
-0.00306397
-0.00306298
-0.0030597
-0.00305397
-0.00304579
0.00306833
0.00302558
0.00297534
0.00291782
0.00285327
0.00278196
0.00270418
0.00262025
0.00253052
0.00243533
0.00233508
0.00223016
0.00212095
0.00200787
0.00189134
0.00177176
0.00164955
0.00152512
0.00139886
0.00127118
0.00114245
0.00101304
0.000883307
0.00075358
0.000624181
0.00049541
0.00036755
0.000240862
0.000115588
-8.04881e-06
-0.000129845
-0.000249617
-0.000367198
-0.00048244
-0.000595213
-0.000705403
-0.000812909
-0.000917649
-0.00101955
-0.00111856
-0.00121462
-0.00130771
-0.00139779
-0.00148485
-0.00156888
-0.00164987
-0.00172784
-0.00180279
-0.00187474
-0.00194371
-0.00200971
-0.00207277
-0.00213293
-0.00219021
-0.00224464
-0.00229626
-0.00234509
-0.00239118
-0.00243454
-0.00247522
-0.00251325
-0.00254865
-0.00258146
-0.00261171
-0.00263941
-0.00266461
-0.00268731
-0.00270755
-0.00272533
-0.00274069
-0.00275363
-0.00276417
-0.00277232
-0.00277807
-0.00278144
-0.00278255
-0.00278155
-0.00277831
-0.00277267
-0.00276463
0.0027561
0.00271935
0.00267617
0.00262671
0.00257118
0.00250979
0.00244278
0.00237042
0.00229299
0.00221076
0.00212405
0.00203318
0.00193848
0.00184027
0.0017389
0.00163471
0.00152803
0.00141921
0.00130858
0.00119646
0.00108319
0.000969067
0.000854397
0.000739468
0.000624557
0.000509927
0.000395827
0.00028249
0.000170136
5.8968e-05
-5.08258e-05
-0.000159072
-0.000265611
-0.000370299
-0.000473007
-0.000573617
-0.000672026
-0.000768142
-0.000861885
-0.000953187
-0.00104199
-0.00112824
-0.00121191
-0.00129295
-0.00137135
-0.00144708
-0.00152014
-0.00159051
-0.0016582
-0.00172322
-0.00178555
-0.00184523
-0.00190225
-0.00195664
-0.00200841
-0.00205757
-0.00210416
-0.00214819
-0.00218967
-0.00222864
-0.00226511
-0.00229911
-0.00233065
-0.00235975
-0.00238644
-0.00241073
-0.00243263
-0.00245217
-0.00246936
-0.00248421
-0.00249673
-0.00250694
-0.00251484
-0.00252042
-0.0025237
-0.00252478
-0.0025238
-0.00252062
-0.00251513
-0.00250733
0.00247538
0.00244368
0.00240643
0.00236375
0.0023158
0.00226277
0.00220485
0.00214225
0.0020752
0.00200393
0.0019287
0.00184977
0.0017674
0.00168187
0.00159345
0.00150244
0.00140911
0.00131374
0.00121662
0.00111802
0.00101821
0.000917453
0.000816011
0.000714131
0.000612053
0.000510006
0.00040821
0.000306871
0.000206186
0.000106339
7.50386e-06
-9.01602e-05
-0.000186504
-0.00028139
-0.000374692
-0.000466296
-0.000556097
-0.000644002
-0.000729927
-0.000813797
-0.000895547
-0.000975119
-0.00105246
-0.00112754
-0.00120031
-0.00127074
-0.00133882
-0.00140452
-0.00146783
-0.00152875
-0.00158725
-0.00164335
-0.00169705
-0.00174834
-0.00179723
-0.00184374
-0.00188786
-0.00192961
-0.00196901
-0.00200605
-0.00204077
-0.00207315
-0.00210323
-0.00213102
-0.00215651
-0.00217974
-0.0022007
-0.00221942
-0.00223589
-0.00225013
-0.00226214
-0.00227194
-0.00227953
-0.0022849
-0.00228806
-0.0022891
-0.00228814
-0.00228506
-0.00227977
-0.00227226
0.00222323
0.00219579
0.00216354
0.00212658
0.00208505
0.00203908
0.00198885
0.00193451
0.00187627
0.00181431
0.00174884
0.00168008
0.00160824
0.00153355
0.00145625
0.00137656
0.00129473
0.00121099
0.00112557
0.00103871
0.000950642
0.000861583
0.000771757
0.000681379
0.000590656
0.000499789
0.000408968
0.000318379
0.000228196
0.000138585
4.97024e-05
-3.83044e-05
-0.000125297
-0.000211148
-0.000295737
-0.000378955
-0.000460698
-0.000540876
-0.000619402
-0.0006962
-0.000771202
-0.000844344
-0.000915573
-0.000984839
-0.0010521
-0.00111732
-0.00118046
-0.00124151
-0.00130042
-0.0013572
-0.00141182
-0.00146428
-0.00151455
-0.00156264
-0.00160855
-0.00165227
-0.00169381
-0.00173316
-0.00177032
-0.00180532
-0.00183813
-0.00186879
-0.00189728
-0.00192362
-0.00194781
-0.00196987
-0.00198979
-0.00200758
-0.00202325
-0.0020368
-0.00204825
-0.00205758
-0.00206482
-0.00206995
-0.00207297
-0.00207397
-0.00207304
-0.00207008
-0.00206502
-0.00205785
0.00199686
0.00197303
0.00194502
0.00191292
0.00187682
0.00183685
0.00179315
0.00174585
0.0016951
0.00164108
0.00158394
0.00152388
0.00146106
0.00139568
0.00132793
0.00125801
0.00118611
0.00111244
0.00103718
0.000960547
0.000882726
0.000803911
0.000724292
0.000644052
0.000563373
0.000482428
0.000401386
0.00032041
0.000239654
0.000159267
7.93903e-05
1.58326e-07
-7.83028e-05
-0.000155874
-0.000232444
-0.000307907
-0.000382168
-0.000455136
-0.000526727
-0.000596867
-0.000665484
-0.000732515
-0.000797902
-0.000861592
-0.00092354
-0.000983702
-0.00104204
-0.00109853
-0.00115313
-0.00120582
-0.00125658
-0.0013054
-0.00135225
-0.00139712
-0.00144
-0.0014809
-0.00151979
-0.00155667
-0.00159155
-0.00162441
-0.00165526
-0.00168411
-0.00171094
-0.00173576
-0.00175858
-0.00177939
-0.00179821
-0.00181502
-0.00182984
-0.00184266
-0.00185349
-0.00186233
-0.00186918
-0.00187405
-0.00187692
-0.00187787
-0.00187697
-0.00187415
-0.00186934
-0.00186254
0.00179369
0.00177294
0.00174854
0.00172057
0.0016891
0.00165425
0.00161611
0.00157482
0.00153048
0.00148325
0.00143326
0.00138065
0.00132559
0.00126822
0.00120871
0.00114723
0.00108394
0.001019
0.000952594
0.000884877
0.00081602
0.000746188
0.000675543
0.000604245
0.00053245
0.000460309
0.000387972
0.00031558
0.000243272
0.000171179
9.94301e-05
2.81451e-05
-4.25605e-05
-0.000112577
-0.000181802
-0.000250137
-0.000317491
-0.000383778
-0.000448919
-0.000512838
-0.000575468
-0.000636744
-0.000696607
-0.000755005
-0.000811888
-0.000867211
-0.000920935
-0.000973021
-0.00102344
-0.00107216
-0.00111915
-0.00116439
-0.00120787
-0.00124956
-0.00128945
-0.00132752
-0.00136377
-0.00139819
-0.00143075
-0.00146147
-0.00149034
-0.00151734
-0.00154248
-0.00156576
-0.00158716
-0.0016067
-0.00162438
-0.00164018
-0.00165411
-0.00166617
-0.00167636
-0.00168469
-0.00169115
-0.00169573
-0.00169845
-0.00169934
-0.00169849
-0.00169582
-0.00169127
-0.00168486
0.00161138
0.00159326
0.00157194
0.00154749
0.00151999
0.00148951
0.00145614
0.00141999
0.00138116
0.00133976
0.00129591
0.00124973
0.00120135
0.00115091
0.00109853
0.00104436
0.000988543
0.000931213
0.000872515
0.000812593
0.000751588
0.000689643
0.000626898
0.000563491
0.000499556
0.000435228
0.000370636
0.000305906
0.000241159
0.000176514
0.000112084
4.79789e-05
-1.56971e-05
-7.88442e-05
-0.000141367
-0.000203176
-0.000264186
-0.000324315
-0.000383489
-0.000441635
-0.000498688
-0.000554585
-0.000609269
-0.000662685
-0.000714784
-0.00076552
-0.000814852
-0.00086274
-0.00090915
-0.000954049
-0.000997408
-0.0010392
-0.0010794
-0.00111799
-0.00115496
-0.00119027
-0.00122392
-0.0012559
-0.00128619
-0.00131478
-0.00134166
-0.00136684
-0.00139029
-0.00141201
-0.00143201
-0.00145027
-0.00146679
-0.00148157
-0.00149461
-0.0015059
-0.00151545
-0.00152325
-0.0015293
-0.0015336
-0.00153615
-0.00153699
-0.00153618
-0.00153367
-0.0015294
-0.00152337
0.00144777
0.0014319
0.00141323
0.00139181
0.0013677
0.00134098
0.00131172
0.00127999
0.0012459
0.00120952
0.00117097
0.00113035
0.00108775
0.00104331
0.00099712
0.00094931
0.000899995
0.000849297
0.000797338
0.00074424
0.000690126
0.000635116
0.000579332
0.000522895
0.000465921
0.000408527
0.000350827
0.000292931
0.000234947
0.000176981
0.000119135
6.1505e-05
4.18693e-06
-5.27289e-05
-0.000109156
-0.00016501
-0.000220214
-0.000274691
-0.000328371
-0.000381187
-0.000433074
-0.000483974
-0.000533829
-0.000582588
-0.000630202
-0.000676624
-0.000721813
-0.000765729
-0.000808336
-0.0008496
-0.00088949
-0.000927979
-0.000965039
-0.00100065
-0.00103478
-0.00106743
-0.00109856
-0.00112817
-0.00115623
-0.00118275
-0.0012077
-0.00123107
-0.00125286
-0.00127306
-0.00129166
-0.00130865
-0.00132403
-0.0013378
-0.00134995
-0.00136048
-0.00136938
-0.00137666
-0.00138231
-0.00138633
-0.00138871
-0.0013895
-0.00138873
-0.00138638
-0.00138238
-0.00137676
0.00130093
0.001287
0.0012706
0.00125179
0.00123061
0.00120713
0.0011814
0.0011535
0.0011235
0.00109147
0.00105751
0.0010217
0.000984126
0.00094489
0.000904087
0.000861816
0.00081818
0.00077328
0.000727223
0.000680112
0.000632052
0.00058315
0.000533509
0.000483234
0.000432427
0.000381191
0.000329624
0.000277825
0.000225889
0.00017391
0.000121978
7.01809e-05
1.8604e-05
-3.26706e-05
-8.35639e-05
-0.000134
-0.000183906
-0.000233213
-0.000281854
-0.000329766
-0.00037689
-0.000423168
-0.000468547
-0.000512977
-0.00055641
-0.000598801
-0.000640108
-0.000680292
-0.000719317
-0.000757149
-0.000793756
-0.000829109
-0.00086318
-0.000895945
-0.000927381
-0.000957466
-0.000986181
-0.00101351
-0.00103943
-0.00106394
-0.00108701
-0.00110864
-0.00112882
-0.00114753
-0.00116477
-0.00118053
-0.0011948
-0.00120758
-0.00121886
-0.00122864
-0.00123692
-0.00124368
-0.00124893
-0.00125267
-0.00125489
-0.00125562
-0.0012549
-0.0012527
-0.00124898
-0.00124375
0.00116912
0.00115686
0.00114243
0.00112587
0.00110723
0.00108655
0.00106388
0.00103929
0.00101283
0.000984581
0.000954604
0.000922976
0.000889774
0.000855079
0.000818974
0.000781543
0.000742875
0.000703056
0.000662176
0.000620327
0.000577599
0.000534082
0.000489869
0.000445048
0.000399711
0.000353946
0.000307841
0.000261481
0.000214952
0.000168337
0.000121715
7.5167e-05
2.87683e-05
-1.74068e-05
-6.32865e-05
-0.000108802
-0.000153886
-0.000198475
-0.000242507
-0.000285924
-0.000328671
-0.000370693
-0.000411939
-0.000452363
-0.000491917
-0.00053056
-0.000568249
-0.000604949
-0.000640621
-0.000675232
-0.000708752
-0.00074115
-0.000772399
-0.000802473
-0.000831349
-0.000859004
-0.000885419
-0.000910574
-0.000934452
-0.000957038
-0.000978316
-0.000998274
-0.0010169
-0.00103418
-0.00105011
-0.00106468
-0.00107788
-0.0010897
-0.00110014
-0.00110919
-0.00111685
-0.00112312
-0.00112798
-0.00113145
-0.0011335
-0.00113418
-0.00113351
-0.00113147
-0.00112802
-0.00112316
0.00105077
0.00103996
0.00102723
0.00101263
0.00099618
0.000977929
0.000957921
0.000936206
0.000912836
0.000887868
0.000861362
0.000833383
0.000803995
0.000773267
0.000741271
0.000708079
0.000673766
0.000638408
0.000602082
0.000564866
0.000526839
0.000488079
0.000448667
0.00040868
0.000368198
0.000327298
0.000286057
0.000244552
0.000202858
0.000161048
0.000119193
7.73656e-05
3.56332e-05
-5.93702e-06
-4.72803e-05
-8.83336e-05
-0.000129036
-0.00016933
-0.000209157
-0.000248465
-0.000287201
-0.000325315
-0.000362759
-0.000399489
-0.00043546
-0.000470633
-0.000504967
-0.000538426
-0.000570976
-0.000602583
-0.000633216
-0.000662846
-0.000691446
-0.000718991
-0.000745456
-0.000770819
-0.000795059
-0.000818157
-0.000840096
-0.000860859
-0.00088043
-0.000898796
-0.000915944
-0.000931862
-0.00094654
-0.000959968
-0.000972139
-0.000983044
-0.000992676
-0.00100103
-0.0010081
-0.00101389
-0.00101838
-0.00102158
-0.00102349
-0.00102411
-0.00102349
-0.0010216
-0.0010184
-0.00101391
0.000944483
0.000934931
0.000923689
0.000910784
0.000896247
0.000880113
0.000862421
0.000843212
0.000822533
0.00080043
0.000776957
0.000752166
0.000726115
0.000698863
0.000670469
0.000640998
0.000610512
0.000579079
0.000546764
0.000513635
0.00047976
0.000445208
0.000410049
0.00037435
0.000338182
0.000301611
0.000264707
0.000227536
0.000190165
0.00015266
0.000115083
7.74996e-05
3.99698e-05
2.55423e-06
-3.46886e-05
-7.17015e-05
-0.000108429
-0.000144819
-0.000180818
-0.000216376
-0.000251446
-0.000285981
-0.000319938
-0.000353272
-0.000385945
-0.000417916
-0.000449149
-0.00047961
-0.000509263
-0.000538079
-0.000566026
-0.000593076
-0.000619204
-0.000644382
-0.000668589
-0.000691802
-0.000714
-0.000735165
-0.000755277
-0.00077432
-0.000792279
-0.00080914
-0.000824889
-0.000839514
-0.000853006
-0.000865352
-0.000876546
-0.000886579
-0.000895443
-0.000903134
-0.000909645
-0.000914972
-0.000919112
-0.000922061
-0.000923816
-0.000924396
-0.000923819
-0.000922067
-0.000919121
-0.000914984
0.000849
0.000840548
0.000830599
0.000819177
0.000806308
0.000792023
0.000776353
0.000759335
0.000741009
0.000721414
0.000700596
0.000678601
0.000655477
0.000631275
0.000606048
0.000579849
0.000552734
0.00052476
0.000495985
0.000466467
0.000436266
0.000405441
0.000374054
0.000342164
0.000309832
0.000277117
0.000244081
0.000210782
0.000177279
0.00014363
0.000109893
7.61235e-05
4.23771e-05
8.70775e-06
-2.48316e-05
-5.81894e-05
-9.13155e-05
-0.000124161
-0.000156679
-0.000188823
-0.000220549
-0.000251815
-0.000282578
-0.000312801
-0.000342444
-0.000371471
-0.000399848
-0.000427541
-0.000454519
-0.000480751
-0.000506208
-0.000530864
-0.000554693
-0.00057767
-0.000599772
-0.000620978
-0.000641268
-0.000660622
-0.000679022
-0.000696453
-0.000712899
-0.000728345
-0.000742778
-0.000756186
-0.000768559
-0.000779886
-0.000790158
-0.000799366
-0.000807505
-0.000814567
-0.000820548
-0.000825442
-0.000829246
-0.000831957
-0.000833572
-0.000834104
-0.000833571
-0.000831957
-0.000829246
-0.000825442
0.000763198
0.000755707