/*--------------------------------*- C++ -*----------------------------------*\
| =========                 |                                                 |
| \\      /  F ield         | OpenFOAM: The Open Source CFD Toolbox           |
|  \\    /   O peration     | Version:  2306                                  |
|   \\  /    A nd           | Website:  www.openfoam.com                      |
|    \\/     M anipulation  |                                                 |
\*---------------------------------------------------------------------------*/
FoamFile
{
    version     2.0;
    format      ascii;
    arch        "LSB;label=32;scalar=64";
    class       surfaceScalarField;
    location    "25";
    object      phi;
}
// * * * * * * * * * * * * * * * * * * * * * * * * * * * * * * * * * * * * * //

dimensions      [0 3 -1 0 0 0 0];

oriented        oriented;

internalField   nonuniform List<scalar> 
37980
(
2.21084
4.29788
-1.59758e-08
2.65723
4.27831
-2.04968e-08
3.12895
4.25299
-2.97204e-08
3.63361
4.22005
-4.27212e-08
4.18193
4.17638
-7.07484e-08
4.79045
4.11619
-9.91587e-08
5.4873
4.02785
-1.14878e-07
6.32423
3.88777
-1.05069e-07
7.40648
3.64246
-6.16203e-08
9.01405
3.11714
-3.96985e-09
7.09645
1.91759
7.09228e-08
5.75111
1.34535
5.29683e-08
4.79587
0.955234
2.71769e-08
4.11353
0.682346
7.28807e-09
3.61436
0.499163
-1.13985e-08
3.23577
0.378597
-2.5205e-08
2.93839
0.297378
-2.92277e-08
2.69758
0.24081
-2.38005e-08
2.49759
0.199987
-1.27447e-08
2.32807
0.169518
-1.83532e-09
2.18193
0.146146
6.8173e-09
2.05409
0.12784
1.08955e-08
1.94083
0.113262
1.21834e-08
1.83934
0.101481
1.08874e-08
1.74751
0.0918325
9.01035e-09
1.66368
0.0838278
6.72721e-09
1.58658
0.0771044
4.92515e-09
1.51519
0.0713906
3.42783e-09
1.44871
0.0664814
2.42726e-09
1.38649
0.0622206
1.72991e-09
1.328
0.0584886
1.28895e-09
1.27281
0.0551928
1.03153e-09
1.22055
0.0522608
8.5235e-10
1.17091
0.0496357
7.80486e-10
1.12364
0.0472718
6.99382e-10
1.07851
0.0451326
6.91987e-10
1.03532
0.0431882
6.41978e-10
0.993903
0.0414143
6.52049e-10
0.954112
0.0397905
6.10944e-10
0.915813
0.0382997
6.22963e-10
0.878885
0.0369277
5.85001e-10
0.843223
0.0356622
5.94778e-10
0.80873
0.0344927
5.59056e-10
0.77532
0.0334101
5.65955e-10
0.742913
0.0324065
5.3259e-10
0.711438
0.0314751
5.36941e-10
0.680828
0.0306098
5.06105e-10
0.651023
0.0298052
5.08459e-10
0.621967
0.0290565
4.80218e-10
0.593607
0.0283596
4.81131e-10
0.565896
0.0277107
4.55473e-10
0.53879
0.0271063
4.55429e-10
0.512246
0.0265435
4.32279e-10
0.486227
0.0260195
4.31662e-10
0.460695
0.0255319
4.10897e-10
0.435617
0.0250784
4.09975e-10
0.41096
0.0246571
3.91438e-10
0.386693
0.0242661
3.90385e-10
0.36279
0.0239038
3.73904e-10
0.339221
0.0235687
3.72814e-10
0.315961
0.0232595
3.58218e-10
0.292986
0.022975
3.57136e-10
0.270272
0.022714
3.44276e-10
0.247797
0.0224756
3.43214e-10
0.225538
0.022259
3.3197e-10
0.203475
0.0220632
3.30886e-10
0.181587
0.0218875
3.21059e-10
0.159856
0.0217315
3.1963e-10
0.138261
0.0215943
3.10592e-10
0.116786
0.0214756
3.08002e-10
0.0954109
0.0213748
2.99204e-10
0.0741192
0.0212917
2.95906e-10
0.0528933
0.0212259
2.89371e-10
0.0317158
0.0211775
2.77892e-10
0.0105688
0.0211469
2.30812e-10
-0.0105674
0.0211362
7.43286e-11
-0.0317143
0.0211469
3.20252e-10
-0.0528918
0.0211775
2.98986e-10
-0.0741177
0.0212259
5.26171e-10
0.0212916
5.14867e-10
2.51839
3.81937
1.67865e-08
3.01341
3.7833
1.97383e-08
3.52899
3.73741
1.95632e-08
4.06975
3.67929
1.47575e-08
4.64085
3.60527
1.0053e-08
5.24757
3.50948
4.15499e-09
5.89342
3.382
6.46082e-10
6.5747
3.20649
2.80618e-09
7.25603
2.96112
1.16522e-08
7.74796
2.62521
2.3459e-08
7.48807
2.17749
2.48443e-08
7.09111
1.7423
2.25218e-08
6.66598
1.38037
1.44998e-08
6.2436
1.10472
1.4924e-09
5.84217
0.900591
-1.17385e-08
5.47168
0.74909
-1.99077e-08
5.13433
0.634727
-2.08e-08
4.82866
0.546483
-1.4871e-08
4.55172
0.476929
-6.66855e-09
4.30018
0.421059
1.42073e-09
4.07086
0.37546
6.5537e-09
3.86095
0.337746
8.68835e-09
3.66802
0.306193
8.47054e-09
3.48999
0.279518
6.85392e-09
3.32507
0.25675
4.86624e-09
3.17175
0.237144
2.92796e-09
3.02874
0.220121
1.45819e-09
2.8949
0.205229
3.703e-10
2.76927
0.192111
-2.6569e-10
2.65101
0.180484
-6.54485e-10
2.53937
0.17012
-7.98248e-10
2.43373
0.160836
-8.515e-10
2.33351
0.152482
-8.046e-10
2.23821
0.144932
-7.47658e-10
2.1474
0.138086
-6.58018e-10
2.06067
0.131856
-5.85094e-10
1.97769
0.12617
-5.04024e-10
1.89814
0.120967
-4.43199e-10
1.82174
0.116194
-3.81202e-10
1.74823
0.111807
-3.36073e-10
1.67739
0.107764
-2.91015e-10
1.60902
0.104034
-2.58721e-10
1.54293
0.100587
-2.26303e-10
1.47894
0.0973953
-2.0342e-10
1.41691
0.0944378
-1.8003e-10
1.35669
0.0916939
-1.63892e-10
1.29815
0.0891458
-1.46918e-10
1.24118
0.0867777
-1.35604e-10
1.18566
0.0845756
-1.23194e-10
1.1315
0.0825268
-1.15315e-10
1.07859
0.0806201
-1.06138e-10
1.02685
0.0788454
-1.00678e-10
0.976198
0.0771937
-9.37747e-11
0.92656
0.0756567
-8.99953e-11
0.877865
0.0742273
-8.46819e-11
0.830045
0.0728987
-8.20571e-11
0.783037
0.0716649
-7.7859e-11
0.736782
0.0705206
-7.60226e-11
0.691225
0.0694609
-7.26165e-11
0.646313
0.0684814
-7.13247e-11
0.601994
0.067578
-6.84981e-11
0.558222
0.0667472
-6.7588e-11
0.51495
0.0659858
-6.52036e-11
0.472135
0.0652908
-6.45653e-11
0.429734
0.0646596
-6.25228e-11
0.387708
0.0640899
-6.20819e-11
0.346016
0.0635795
-6.03678e-11
0.30462
0.0631267
-6.02589e-11
0.263485
0.0627298
-5.92536e-11
0.222573
0.0623874
-6.01204e-11
0.18185
0.0620982
-6.02951e-11
0.14128
0.0618615
-6.16365e-11
0.100829
0.0616764
-6.05177e-11
0.060464
0.061543
-6.63908e-11
0.0201493
0.0614616
-9.69492e-11
-0.0201486
0.0614341
-2.20465e-10
-0.0604633
0.0614616
-6.74954e-11
-0.100829
0.0615429
-7.75638e-11
-0.141279
0.0616764
9.50596e-11
0.0618614
1.38331e-10
2.39478
3.37198
1.4014e-08
2.85074
3.32734
1.13501e-08
3.3163
3.27185
5.70255e-09
3.79185
3.20374
1.11468e-10
4.27652
3.12059
-2.75787e-09
4.767
3.01899
-4.31408e-09
5.25491
2.89409
-4.74469e-09
5.72188
2.73952
-2.86451e-09
6.13431
2.54869
7.79813e-10
6.44142
2.3181
4.96002e-09
6.56671
2.0522
6.89681e-09
6.52554
1.78346
5.66477e-09
6.36572
1.5402
1.20649e-09
6.13677
1.33367
-4.53212e-09
5.87455
1.16281
-9.02129e-09
5.6016
1.02204
-1.00934e-08
5.33085
0.905472
-8.17754e-09
5.06925
0.808083
-3.75833e-09
4.82024
0.725949
8.88488e-10
4.5852
0.65609
4.61452e-09
4.36443
0.596236
6.63023e-09
4.15755
0.544629
7.15144e-09
3.96386
0.499879
6.43002e-09
3.78251
0.460868
5.1218e-09
3.61257
0.42669
3.64323e-09
3.45311
0.396602
2.28377e-09
3.30324
0.369992
1.20762e-09
3.16211
0.346355
4.00903e-10
3.02896
0.32527
-1.2005e-10
2.90305
0.306389
-4.60693e-10
2.78375
0.289417
-6.29663e-10
2.67048
0.274109
-7.21221e-10
2.56271
0.260254
-7.30378e-10
2.45996
0.247677
-7.21064e-10
2.36182
0.236227
-6.76321e-10
2.2679
0.225776
-6.37256e-10
2.17786
0.216211
-5.83082e-10
2.09139
0.20744
-5.4136e-10
2.00821
0.199377
-4.92396e-10
1.92806
0.191953
-4.56052e-10
1.85072
0.185105
-4.15438e-10
1.77598
0.178777
-3.85784e-10
1.70364
0.172921
-3.53079e-10
1.63354
0.167497
-3.29516e-10
1.56551
0.162465
-3.03478e-10
1.49941
0.157793
-2.85016e-10
1.43511
0.153452
-2.64372e-10
1.37247
0.149415
-2.50026e-10
1.31139
0.145658
-2.33647e-10
1.25175
0.142162
-2.22538e-10
1.19347
0.138907
-2.0947e-10
1.13644
0.135876
-2.00852e-10
1.08058
0.133054
-1.90325e-10
1.02581
0.130427
-1.83594e-10
0.972049
0.127984
-1.7501e-10
0.919236
0.125712
-1.69708e-10
0.867299
0.123602
-1.62621e-10
0.816175
0.121645
-1.58408e-10
0.765804
0.119832
-1.52501e-10
0.716129
0.118156
-1.49141e-10
0.667097
0.116611
-1.44197e-10
0.618654
0.115189
-1.41532e-10
0.570753
0.113887
-1.37411e-10
0.523346
0.112698
-1.35347e-10
0.476387
0.111619
-1.31969e-10
0.429832
0.110645
-1.30476e-10
0.383639
0.109773
-1.27898e-10
0.337766
0.109
-1.27191e-10
0.292173
0.108322
-1.25915e-10
0.246822
0.107739
-1.26662e-10
0.201672
0.107248
-1.27253e-10
0.156688
0.106846
-1.2896e-10
0.11183
0.106534
-1.29615e-10
0.0670625
0.10631
-1.38894e-10
0.0223487
0.106176
-1.75839e-10
-0.0223475
0.10613
-3.04761e-10
-0.0670614
0.106176
-1.40325e-10
-0.111829
0.10631
-2.25193e-10
-0.156687
0.106534
-3.95966e-11
0.106846
-4.864e-11
2.13379
2.98147
1.14841e-08
2.52536
2.93577
8.56884e-09
2.91715
2.88006
5.23541e-09
3.30755
2.81335
3.15277e-09
3.69368
2.73446
3.51627e-09
4.07072
2.64195
4.50795e-09
4.43068
2.53413
4.34421e-09
4.7609
2.4093
4.2596e-09
5.0432
2.2664
3.42932e-09
5.2551
2.10621
1.94948e-09
5.37408
1.93321
-8.64432e-11
5.39914
1.7584
-2.54307e-09
5.34735
1.59198
-4.78904e-09
5.24114
1.43988
-6.03307e-09
5.09999
1.30396
-6.06224e-09
4.93831
1.18372
-4.5928e-09
4.76609
1.07769
-2.7127e-09
4.58995
0.984228
-1.20414e-10
4.41415
0.901748
1.7034e-09
4.2414
0.82884
3.00297e-09
4.07336
0.764272
3.43234e-09
3.91102
0.706971
3.32947e-09
3.75489
0.656006
2.7973e-09
3.60519
0.61057
2.12828e-09
3.46192
0.56996
1.4566e-09
3.32495
0.53357
8.81026e-10
3.19407
0.500876
4.54021e-10
3.069
0.471425
1.50081e-10
2.94944
0.444826
-2.29378e-11
2.83509
0.42074
-1.23497e-10
2.72563
0.398876
-1.49771e-10
2.62076
0.378981
-1.50825e-10
2.52018
0.360835
-1.19656e-10
2.42361
0.344249
-8.82026e-11
2.33078
0.329056
-4.61011e-11
2.24145
0.315111
-1.22469e-11
2.15537
0.302289
2.35855e-11
2.07233
0.290477
5.0389e-11
1.99213
0.27958
7.64611e-11
1.91457
0.269509
9.52075e-11
1.83949
0.260191
1.12709e-10
1.76671
0.251557
1.2483e-10
1.69608
0.243549
1.35845e-10
1.62746
0.236112
1.43018e-10
1.56073
0.2292
1.4937e-10
1.49575
0.22277
1.52973e-10
1.43242
0.216786
1.56061e-10
1.37062
0.211212
1.57154e-10
1.31026
0.206019
1.58022e-10
1.25124
0.201179
1.57411e-10
1.19348
0.196668
1.56839e-10
1.13689
0.192463
1.55135e-10
1.0814
0.188544
1.53691e-10
1.02694
0.184893
1.51344e-10
0.973427
0.181494
1.49433e-10
0.920807
0.178332
1.46761e-10
0.869016
0.175393
1.44655e-10
0.817995
0.172665
1.4187e-10
0.767689
0.170138
1.39741e-10
0.718046
0.1678
1.36976e-10
0.669014
0.165643
1.34922e-10
0.620545
0.163658
1.32249e-10
0.572592
0.161839
1.30316e-10
0.525112
0.160179
1.2777e-10
0.47806
0.158671
1.25982e-10
0.431395
0.15731
1.23592e-10
0.385076
0.156091
1.21976e-10
0.339065
0.155011
1.19754e-10
0.293322
0.154066
1.18315e-10
0.24781
0.153251
1.16272e-10
0.202492
0.152566
1.15481e-10
0.157331
0.152006
1.15009e-10
0.112293
0.151572
1.17931e-10
0.0673417
0.151262
1.17624e-10
0.0224419
0.151075
1.05073e-10
-0.0224408
0.151013
4.09778e-11
-0.0673406
0.151075
1.27023e-10
-0.112292
0.151262
1.17145e-10
-0.15733
0.151572
2.11193e-10
0.152006
2.72599e-10
1.81991
2.65438
8.63962e-09
2.14332
2.61236
7.89054e-09
2.46148
2.5619
6.14656e-09
2.7722
2.50263
5.07998e-09
3.0725
2.43416
6.37121e-09
3.35836
2.35609
7.29834e-09
3.62434
2.26815
7.51604e-09
3.86336
2.17028
6.73842e-09
4.06684
2.06291
5.65194e-09
4.22567
1.94738
3.76282e-09
4.33259
1.82629
2.30654e-09
4.3872
1.70379
1.02337e-09
4.39522
1.58397
3.49363e-10
4.36527
1.46983
3.20472e-10
4.30623
1.36301
7.47259e-10
4.22578
1.26417
1.53e-09
4.13012
1.17335
2.19521e-09
4.02408
1.09027
2.74896e-09
3.91133
1.01449
2.91316e-09
3.79467
0.945502
2.82325e-09
3.67619
0.882753
2.4045e-09
3.55745
0.825708
1.89326e-09
3.43961
0.773848
1.29088e-09
3.3235
0.726684
7.45401e-10
3.20969
0.683763
2.64028e-10
3.0986
0.644666
-1.12086e-10
2.99046
0.609014
-3.85661e-10
2.88542
0.576464
-5.76619e-10
2.78354
0.546704
-6.84746e-10
2.68482
0.519459
-7.50135e-10
2.58922
0.494479
-7.62829e-10
2.49666
0.471543
-7.63058e-10
2.40704
0.450453
-7.32856e-10
2.32026
0.431031
-7.06561e-10
2.23619
0.413122
-6.62645e-10
2.15472
0.396584
-6.29228e-10
2.07571
0.381293
-5.84795e-10
1.99905
0.367137
-5.52355e-10
1.92462
0.354016
-5.12294e-10
1.85228
0.341841
-4.83595e-10
1.78194
0.330531
-4.49183e-10
1.71349
0.320016
-4.24838e-10
1.6468
0.310231
-3.95976e-10
1.5818
0.301119
-3.75804e-10
1.51837
0.292626
-3.51917e-10
1.45643
0.284707
-3.35455e-10
1.3959
0.277319
-3.15823e-10
1.33669
0.270425
-3.02512e-10
1.27872
0.263988
-2.86406e-10
1.22192
0.257979
-2.75682e-10
1.16622
0.252368
-2.62426e-10
1.11155
0.247131
-2.53776e-10
1.05785
0.242243
-2.42794e-10
1.00506
0.237684
-2.35779e-10
0.953117
0.233435
-2.26601e-10
0.901973
0.229477
-2.20873e-10
0.851571
0.225794
-2.13136e-10
0.801863
0.222374
-2.08426e-10
0.7528
0.219201
-2.01859e-10
0.704335
0.216264
-1.97973e-10
0.656424
0.213553
-1.92384e-10
0.609025
0.211058
-1.8919e-10
0.562096
0.208768
-1.84457e-10
0.515596
0.206678
-1.81882e-10
0.469488
0.204779
-1.77952e-10
0.423734
0.203064
-1.75981e-10
0.378296
0.201529
-1.72889e-10
0.33314
0.200167
-1.71618e-10
0.28823
0.198975
-1.69581e-10
0.243532
0.197949
-1.6914e-10
0.199013
0.197085
-1.68009e-10
0.154638
0.196381
-1.67239e-10
0.110376
0.195834
-1.65257e-10
0.0661942
0.195444
-1.70439e-10
0.0220598
0.19521
-1.95463e-10
-0.0220587
0.195131
-2.79847e-10
-0.0661931
0.19521
-1.55704e-10
-0.110375
0.195444
-2.66867e-10
-0.154637
0.195834
-1.34071e-10
0.196381
-1.46797e-10
1.52481
2.38407
2.32462e-09
1.78942
2.34774
2.13027e-09
2.04671
2.30461
1.60883e-09
2.2947
2.25464
2.77161e-09
2.53105
2.19782
3.45698e-09
2.75293
2.13421
3.65374e-09
2.95707
2.06401
3.52184e-09
3.13974
1.9876
3.06268e-09
3.29703
1.90563
2.51106e-09
3.4253
1.81912
1.90243e-09
3.52206
1.72953
1.43955e-09
3.58714
1.63871
1.13984e-09
3.62257
1.54854
1.07892e-09
3.63181
1.46059
1.20222e-09
3.61885
1.37597
1.33996e-09
3.58761
1.29541
1.65192e-09
3.54164
1.21932
1.67379e-09
3.48402
1.14789
1.68798e-09
3.41738
1.08113
1.51953e-09
3.34391
1.01897
1.3097e-09
3.26544
0.961228
1.01397e-09
3.18344
0.907704
7.37276e-10
3.09913
0.858157
4.66736e-10
3.01348
0.812335
2.56532e-10
2.92726
0.76998
9.02456e-11
2.84109
0.730839
-1.8575e-11
2.75544
0.694668
-8.44799e-11
2.67067
0.661233
-1.14307e-10
2.58706
0.630315
-1.16932e-10
2.50481
0.60171
-1.04042e-10
2.42406
0.575227
-7.84103e-11
2.34491
0.550693
-5.01021e-11
2.26741
0.527946
-1.79617e-11
2.19161
0.50684
1.10753e-11
2.11749
0.48724
3.97121e-11
2.04505
0.469024
6.37223e-11
1.97426
0.452081
8.58012e-11
1.90509
0.436309
1.03638e-10
1.83749
0.421616
1.19241e-10
1.77141
0.407919
1.31554e-10
1.7068
0.395141
1.4178e-10
1.64361
0.383213
1.49661e-10
1.58177
0.372072
1.55737e-10
1.52122
0.361662
1.60226e-10
1.46192
0.35193
1.63223e-10
1.4038
0.342828
1.65196e-10
1.3468
0.334314
1.65989e-10
1.29088
0.326349
1.66159e-10
1.23597
0.318896
1.65443e-10
1.18203
0.311922
1.6438e-10
1.129
0.305399
1.62696e-10
1.07683
0.299298
1.60839e-10
1.02548
0.293594
1.5859e-10
0.974898
0.288266
1.56267e-10
0.92504
0.283292
1.53744e-10
0.875863
0.278653
1.51189e-10
0.827325
0.274333
1.48591e-10
0.779385
0.270314
1.45968e-10
0.732003
0.266582
1.43424e-10
0.685142
0.263126
1.40836e-10
0.638764
0.259931
1.38422e-10
0.592834
0.256988
1.35927e-10
0.547316
0.254287
1.33672e-10
0.502175
0.251818
1.31293e-10
0.45738
0.249574
1.29201e-10
0.412896
0.247548
1.26954e-10
0.368693
0.245732
1.25056e-10
0.324739
0.244121
1.2301e-10
0.281004
0.242711
1.21474e-10
0.237457
0.241496
1.19956e-10
0.194068
0.240474
1.19708e-10
0.150809
0.23964
1.20481e-10
0.10765
0.238994
1.24497e-10
0.0645615
0.238532
1.26471e-10
0.0215161
0.238255
1.21101e-10
-0.0215152
0.238163
8.62753e-11
-0.0645606
0.238255
1.4978e-10
-0.107649
0.238532
1.35979e-10
-0.150808
0.238994
2.00436e-10
0.23964
2.43231e-10
1.26837
2.16112
-4.28753e-09
1.48536
2.13075
-3.96198e-09
1.695
2.09497
-3.07081e-09
1.89575
2.05389
-2.25875e-09
2.08592
2.00764
-1.77506e-09
2.26368
1.95645
-1.5331e-09
2.42709
1.9006
-1.34816e-09
2.57416
1.84053
-1.23319e-09
2.70302
1.77677
-1.07225e-09
2.8121
1.71004
-9.1171e-10
2.90042
1.6412
-6.9644e-10
2.96789
1.57124
-4.72068e-10
3.01529
1.50114
-2.42865e-10
3.04408
1.4318
-3.61957e-11
3.0561
1.36395
1.04914e-10
3.05335
1.29816
1.88537e-10
3.03783
1.23484
1.74083e-10
3.01142
1.17429
1.12197e-10
2.97588
1.11668
-2.13633e-11
2.93277
1.06208
-1.61945e-10
2.88347
1.01052
-3.239e-10
2.82922
0.961962
-4.59147e-10
2.77104
0.916331
-5.80237e-10
2.70985
0.873526
-6.65098e-10
2.64641
0.833427
-7.24051e-10
2.58134
0.7959
-7.54899e-10
2.51521
0.760807
-7.62506e-10
2.44843
0.728007
-7.55532e-10
2.38139
0.697359
-7.32246e-10
2.31437
0.668726
-7.05564e-10
2.24762
0.641977
-6.68551e-10
2.18133
0.616984
-6.34918e-10
2.11565
0.593628
-5.94795e-10
2.05069
0.571796
-5.61165e-10
1.98655
0.551382
-5.23209e-10
1.92329
0.532288
-4.9261e-10
1.86094
0.514422
-4.58891e-10
1.79955
0.497698
-4.32276e-10
1.73913
0.482038
-4.0328e-10
1.67968
0.467368
-3.8069e-10
1.6212
0.453621
-3.56225e-10
1.56368
0.440735
-3.3735e-10
1.5071
0.428652
-3.1696e-10
1.45144
0.417321
-3.01366e-10
1.39668
0.406692
-2.84505e-10
1.34279
0.39672
-2.71725e-10
1.28974
0.387364
-2.57833e-10
1.2375
0.378587
-2.47401e-10
1.18604
0.370354
-2.35947e-10
1.13533
0.362632
-2.27429e-10
1.08534
0.355392
-2.17937e-10
1.03603
0.348608
-2.10955e-10
0.98737
0.342253
-2.03026e-10
0.93933
0.336306
-1.97267e-10
0.891878
0.330745
-1.90578e-10
0.844981
0.32555
-1.85789e-10
0.798609
0.320705
-1.80087e-10
0.75273
0.316192
-1.76072e-10
0.707315
0.311997
-1.71164e-10
0.662334
0.308107
-1.67776e-10
0.617758
0.304507
-1.63524e-10
0.573557
0.301189
-1.60661e-10
0.529705
0.29814
-1.56978e-10
0.486172
0.295351
-1.54588e-10
0.442932
0.292814
-1.51445e-10
0.399957
0.290522
-1.49526e-10
0.357222
0.288467
-1.4696e-10
0.3147
0.286644
-1.45569e-10
0.272365
0.285046
-1.43688e-10
0.230191
0.28367
-1.42804e-10
0.188154
0.282511
-1.41349e-10
0.146227
0.281567
-1.39974e-10
0.104387
0.280834
-1.3771e-10
0.0626077
0.280311
-1.40455e-10
0.0208655
0.279997
-1.55392e-10
-0.0208646
0.279893
-2.03616e-10
-0.0626069
0.279997
-1.23727e-10
-0.104386
0.280311
-2.1878e-10
-0.146226
0.280834
-1.32558e-10
0.281567
-1.39902e-10
1.05496
1.9765
-2.88007e-09
1.23418
1.95154
-2.23668e-09
1.40687
1.92228
-1.7925e-09
1.5719
1.88886
-1.20284e-09
1.72807
1.85147
-1.0979e-09
1.87418
1.81034
-1.07252e-09
2.00904
1.76575
-1.01961e-09
2.13151
1.71805
-9.15144e-10
2.2406
1.66767
-7.64673e-10
2.33555
1.61509
-5.8602e-10
2.41588
1.56087
-4.00746e-10
2.48154
1.50559
-2.2231e-10
2.53284
1.44984
-7.77512e-11
2.57046
1.39418
3.67131e-11
2.59532
1.3391
9.70075e-11
2.60846
1.28501
1.25845e-10
2.61102
1.23228
1.06031e-10
2.60417
1.18115
7.2684e-11
2.58901
1.13184
1.28326e-11
2.56662
1.08447
-3.89485e-11
2.53799
1.03915
-9.60296e-11
2.50403
0.995918
-1.33008e-10
2.46558
0.954788
-1.64563e-10
2.42336
0.915745
-1.7543e-10
2.37803
0.878753
-1.79574e-10
2.33017
0.843756
-1.68744e-10
2.28029
0.810689
-1.54304e-10
2.22882
0.779479
-1.31526e-10
2.17614
0.750044
-1.08635e-10
2.12256
0.722302
-8.23062e-11
2.06837
0.696168
-5.82305e-11
2.01379
0.671558
-3.34192e-11
1.95903
0.64839
-1.19854e-11
1.90425
0.626581
9.08968e-12
1.84957
0.606056
2.64801e-11
1.79512
0.586738
4.3323e-11
1.74099
0.568558
5.65832e-11
1.68724
0.551447
6.94942e-11
1.63393
0.535342
7.90859e-11
1.58112
0.520183
8.86324e-11
1.52882
0.505914
9.51715e-11
1.47708
0.492482
1.01952e-10
1.42589
0.479837
1.06048e-10
1.37528
0.467934
1.10613e-10
1.32524
0.456729
1.12815e-10
1.27578
0.446183
1.15648e-10
1.22688
0.436259
1.16431e-10
1.17855
0.426922
1.17949e-10
1.13077
0.418139
1.17714e-10
1.08352
0.409881
1.18262e-10
1.03679
0.402121
1.1733e-10
0.990564
0.394832
1.17185e-10
0.944827
0.387991
1.15806e-10
0.899556
0.381576
1.15182e-10
0.854734
0.375567
1.13541e-10
0.810339
0.369945
1.12597e-10
0.766352
0.364693
1.10827e-10
0.72275
0.359794
1.0968e-10
0.679514
0.355233
1.07873e-10
0.636622
0.350999
1.06605e-10
0.594053
0.347077
1.04819e-10
0.551784
0.343457
1.03481e-10
0.509796
0.340128
1.0174e-10
0.468067
0.33708
1.0035e-10
0.426576
0.334306
9.8656e-11
0.3853
0.331797
9.72229e-11
0.344221
0.329547
9.55932e-11
0.303316
0.327549
9.4169e-11
0.262564
0.325797
9.27541e-11
0.221946
0.324288
9.16161e-11
0.181439
0.323017
9.11311e-11
0.141025
0.321981
9.15001e-11
0.100681
0.321177
9.39352e-11
0.0603887
0.320604
9.55823e-11
0.0201264
0.32026
9.40672e-11
-0.0201258
0.320145
7.95175e-11
-0.0603881
0.32026
1.10634e-10
-0.100681
0.320604
1.08581e-10
-0.141024
0.321177
1.36708e-10
0.321981
1.6491e-10
0.879924
1.82274
-2.60797e-09
1.02909
1.80236
-2.37011e-09
1.17281
1.77856
-1.73177e-09
1.31023
1.75145
-1.30186e-09
1.44048
1.72122
-1.28632e-09
1.56277
1.68806
-1.30911e-09
1.6763
1.65222
-1.28547e-09
1.78038
1.61397
-1.21465e-09
1.87442
1.57363
-1.12072e-09
1.95798
1.53154
-1.00652e-09
2.03079
1.48806
-8.98231e-10
2.09277
1.4436
-7.9179e-10
2.14408
1.39853
-7.10715e-10
2.18504
1.35322
-6.41405e-10
2.21611
1.30802
-6.02898e-10
2.23789
1.26324
-5.74297e-10
2.25102
1.21914
-5.70395e-10
2.25623
1.17594
-5.67574e-10
2.25422
1.13384
-5.78565e-10
2.24572
1.09298
-5.82306e-10
2.2314
1.05346
-5.90855e-10
2.21194
1.01538
-5.88642e-10
2.18796
0.978774
-5.8667e-10
2.16002
0.943682
-5.74912e-10
2.12866
0.910113
-5.62297e-10
2.09436
0.878058
-5.43074e-10
2.05755
0.847501
-5.23454e-10
2.01862
0.818409
-5.00521e-10
1.97791
0.790747
-4.77887e-10
1.93575
0.764471
-4.54377e-10
1.89238
0.739531
-4.31602e-10
1.84806
0.715877
-4.09395e-10
1.803
0.693457
-3.88088e-10
1.75736
0.672217
-3.6804e-10
1.71131
0.652103
-3.48912e-10
1.66499
0.633063
-3.31271e-10
1.6185
0.615045
-3.14524e-10
1.57195
0.597998
-2.99245e-10
1.52542
0.581875
-2.84828e-10
1.47897
0.566628
-2.71744e-10
1.43268
0.552212
-2.59482e-10
1.38657
0.538585
-2.48376e-10
1.3407
0.525707
-2.38045e-10
1.29509
0.51354
-2.28687e-10
1.24978
0.502046
-2.20026e-10
1.20477
0.491193
-2.12164e-10
1.16008
0.480947
-2.04907e-10
1.11572
0.47128
-1.98303e-10
1.0717
0.462161
-1.92197e-10
1.02801
0.453566
-1.86629e-10
0.984666
0.445469
-1.8145e-10
0.941652
0.437846
-1.76726e-10
0.898966
0.430677
-1.72285e-10
0.856601
0.423941
-1.68248e-10
0.81455
0.417619
-1.64391e-10
0.772802
0.411693
-1.60913e-10
0.731346
0.406148
-1.57521e-10
0.690171
0.400969
-1.54501e-10
0.649264
0.396141
-1.51484e-10
0.608612
0.391651
-1.48846e-10
0.5682
0.387488
-1.4614e-10
0.528016
0.383641
-1.43832e-10
0.488043
0.3801
-1.41405e-10
0.448268
0.376855
-1.39409e-10
0.408675
0.373899
-1.37268e-10
0.369249
0.371223
-1.35602e-10
0.329973
0.368822
-1.33805e-10
0.290834
0.366688
-1.32529e-10
0.251814
0.364817
-1.31181e-10
0.212898
0.363205
-1.30302e-10
0.174069
0.361846
-1.29316e-10
0.135313
0.360738
-1.28337e-10
0.0966123
0.359878
-1.27268e-10
0.0579516
0.359265
-1.29345e-10
0.0193148
0.358897
-1.38447e-10
-0.0193141
0.358774
-1.64254e-10
-0.0579509
0.358897
-1.19155e-10
-0.0966116
0.359265
-1.88064e-10
-0.135312
0.359878
-1.37602e-10
0.360738
-1.45177e-10
0.737266
1.69386
-1.05294e-09
0.862379
1.67725
-7.08944e-10
0.983064
1.65787
-3.96118e-10
1.09867
1.63584
-2.45854e-10
1.20859
1.6113
-3.05007e-10
1.31222
1.58443
-3.69534e-10
1.40904
1.5554
-4.04883e-10
1.49857
1.52444
-3.74914e-10
1.58043
1.49177
-3.28897e-10
1.65432
1.45765
-2.79483e-10
1.72005
1.42233
-2.52359e-10
1.77755
1.3861
-2.09355e-10
1.82688
1.3492
-1.77016e-10
1.86818
1.31192
-1.44401e-10
1.90172
1.27448
-1.27606e-10
1.92783
1.23714
-1.09713e-10
1.94689
1.20008
-1.0562e-10
1.95934
1.16349
-9.70914e-11
1.96565
1.12753
-9.65469e-11
1.9663
1.09234
-8.88854e-11
1.96175
1.05801
-8.72324e-11
1.95248
1.02465
-7.79665e-11
1.93894
0.992313
-7.30368e-11
1.92156
0.961056
-6.10843e-11
1.90077
0.93091
-5.31192e-11
1.87693
0.901897
-3.94526e-11
1.8504
0.874024
-2.99074e-11
1.82152
0.84729
-1.59777e-11
1.79059
0.821685
-6.32014e-12
1.75786
0.797193
6.7277e-12
1.7236
0.773791
1.5495e-11
1.68803
0.751453
2.70382e-11
1.65134
0.730149
3.44428e-11
1.61371
0.709847
4.43088e-11
1.5753
0.690512
5.02482e-11
1.53625
0.672111
5.84705e-11
1.49669
0.654608
6.29935e-11
1.45672
0.637967
6.96845e-11
1.41644
0.622154
7.29256e-11
1.37593
0.607134
7.82594e-11
1.33527
0.592874
8.04002e-11
1.29452
0.579339
8.45357e-11
1.25372
0.5665
8.55831e-11
1.21294
0.554326
8.85144e-11
1.1722
0.542786
8.87058e-11
1.13153
0.531854
9.07407e-11
1.09098
0.521503
9.0299e-11
1.05055
0.511707
9.16167e-11
1.01027
0.502443
9.07074e-11
0.970148
0.493688
9.14591e-11
0.930197
0.485419
9.02203e-11
0.890425
0.477618
9.05329e-11
0.850837
0.470265
8.90752e-11
0.811436
0.463342
8.90494e-11
0.772222
0.456832
8.74569e-11
0.733196
0.45072
8.71717e-11
0.694354
0.44499
8.5507e-11
0.655692
0.43963
8.50228e-11
0.617207
0.434626
8.33299e-11
0.578891
0.429967
8.2693e-11
0.540737
0.425642
8.10006e-11
0.502739
0.421639
8.0241e-11
0.464888
0.417952
7.85614e-11
0.427174
0.414569
7.76932e-11
0.389588
0.411485
7.60261e-11
0.352121
0.408691
7.50578e-11
0.314761
0.406181
7.34197e-11
0.277499
0.403951
7.23979e-11
0.240323
0.401993
7.09141e-11
0.203222
0.400305
7.00417e-11
0.166185
0.398883
6.91809e-11
0.129201
0.397722
6.9143e-11
0.0922573
0.396822
7.00345e-11
0.0553428
0.396179
7.12371e-11
0.0184458
0.395794
7.1747e-11
-0.0184453
0.395665
6.87753e-11
-0.0553423
0.395794
7.83198e-11
-0.0922568
0.396179
8.91879e-11
-0.1292
0.396822
9.44423e-11
0.397722
1.11346e-10
0.621015
1.58514
-7.1794e-10
0.726691
1.57158
-6.28695e-10
0.828814
1.55575
-3.48357e-10
0.92689
1.53776
-1.61261e-10
1.02045
1.51774
-2.2638e-10
1.10907
1.49581
-2.96977e-10
1.19235
1.47212
-3.37947e-10
1.26996
1.44683
-3.40365e-10
1.34161
1.42012
-3.38231e-10
1.40708
1.39218
-3.19762e-10
1.46623
1.36318
-3.13476e-10
1.51899
1.33334
-3.0005e-10
1.56535
1.30284
-2.98822e-10
1.60539
1.27188
-2.85928e-10
1.63925
1.24063
-2.92358e-10
1.6671
1.20928
-2.97779e-10
1.6892
1.17798
-2.84404e-10
1.7058
1.14689
-2.68139e-10
1.71721
1.11612
-2.79621e-10
1.72375
1.0858
-2.83577e-10
1.72575
1.05602
-2.83502e-10
1.72352
1.02687
-2.7751e-10
1.71741
0.998423
-2.77712e-10
1.70774
0.970731
-2.71092e-10
1.69481
0.943839
-2.69564e-10
1.67893
0.917781
-2.62155e-10
1.66037
0.892581
-2.59197e-10
1.6394
0.868254
-2.51401e-10
1.61628
0.844806
-2.47667e-10
1.59124
0.822239
-2.40118e-10
1.56448
0.800548
-2.36092e-10
1.53621
0.779723
-2.28749e-10
1.50661
0.759752
-2.24508e-10
1.47584
0.740617
-2.17451e-10
1.44405
0.722301
-2.13248e-10
1.41138
0.704783
-2.06623e-10
1.37794
0.68804
-2.02548e-10
1.34386
0.67205
-1.96592e-10
1.30923
0.656789
-1.93297e-10
1.27413
0.642233
-1.8803e-10
1.23864
0.628357
-1.84731e-10
1.20284
0.615139
-1.79715e-10
1.16679
0.602554
-1.76813e-10
1.13054
0.590579
-1.72433e-10
1.09413
0.579192
-1.699e-10
1.05762
0.56837
-1.66005e-10
1.02103
0.558093
-1.63764e-10
0.984394
0.54834
-1.60289e-10
0.947746
0.539091
-1.58278e-10
0.911105
0.530328
-1.55158e-10
0.874491
0.522033
-1.5332e-10
0.83792
0.514189
-1.50497e-10
0.801405
0.50678
-1.48781e-10
0.764957
0.49979
-1.46205e-10
0.728585
0.493204
-1.44572e-10
0.692294
0.48701
-1.42205e-10
0.65609
0.481194
-1.40631e-10
0.619976
0.475744
-1.38445e-10
0.583953
0.47065
-1.36913e-10
0.548021
0.465899
-1.34889e-10
0.512179
0.461483
-1.33392e-10
0.476425
0.457393
-1.31518e-10
0.440757
0.453619
-1.30063e-10
0.405171
0.450155
-1.28345e-10
0.369663
0.446993
-1.26961e-10
0.334227
0.444127
-1.25431e-10
0.298858
0.44155
-1.24187e-10
0.26355
0.439258
-1.22911e-10
0.228297
0.437246
-1.21922e-10
0.193092
0.43551
-1.20954e-10
0.157928
0.434047
-1.20309e-10
0.122797
0.432852
-1.19577e-10
0.0876936
0.431925
-1.19421e-10
0.0526087
0.431264
-1.20874e-10
0.0175351
0.430867
-1.26132e-10
-0.0175346
0.430735
-1.3862e-10
-0.0526082
0.430867
-1.1855e-10
-0.0876931
0.431264
-1.6456e-10
-0.122797
0.431925
-1.39472e-10
0.432852
-1.47251e-10
0.526004
1.49288
-1.90914e-10
0.615833
1.48175
-5.58382e-11
0.702825
1.46876
9.83469e-11
0.786599
1.45399
1.16501e-10
0.866793
1.43755
5.87136e-11
0.943078
1.41952
1.53876e-11
1.01516
1.40004
-1.01202e-11
1.08277
1.37922
-1.19628e-11
1.1457
1.35719
-1.24301e-11
1.20377
1.3341
-4.31816e-12
1.25687
1.31009
-2.27964e-12
1.30491
1.28529
6.09561e-12
1.34788
1.25987
7.51634e-12
1.38579
1.23396
1.50459e-11
1.41872
1.2077
1.52099e-11
1.44677
1.18123
2.20057e-11
1.47008
1.15467
2.17813e-11
1.48883
1.12814
2.77658e-11
1.50319
1.10175
2.81384e-11
1.5134
1.07559
3.42872e-11
1.51967
1.04975
3.42974e-11
1.52223
1.02431
3.99452e-11
1.52132
0.999333
4.04993e-11
1.51717
0.974876
4.63652e-11
1.51003
0.950985
4.73735e-11
1.50011
0.9277
5.33572e-11
1.48764
0.905051
5.37912e-11
1.47283
0.883063
5.91001e-11
1.45588
0.861753
6.02395e-11
1.43699
0.841132
6.56545e-11
1.41633
0.821206
6.68666e-11
1.39408
0.801978
7.17197e-11
1.37038
0.783445
7.22988e-11
1.3454
0.765604
7.66114e-11
1.31925
0.748445
7.71409e-11
1.29208
0.73196
8.24165e-11
1.26398
0.716136
7.81552e-11
1.23507
0.70096
7.90816e-11
1.20544
0.686417
8.39734e-11
1.17518
0.672492
9.19982e-11
1.14437
0.659169
9.0297e-11
1.11308
0.646432
8.81647e-11
1.08137
0.634264
8.81423e-11
1.0493
0.622647
9.02498e-11
1.01692
0.611566
8.93972e-11
0.984289
0.601005
9.10507e-11
0.951436
0.590946
8.98527e-11
0.918402
0.581374
9.09871e-11
0.885218
0.572274
8.94875e-11
0.851915
0.563631
9.01799e-11
0.818518
0.555431
8.84681e-11
0.785049
0.547659
8.88352e-11
0.751526
0.540302
8.70521e-11
0.717968
0.533348
8.72377e-11
0.684388
0.526785
8.54581e-11
0.650798
0.5206
8.54873e-11
0.617208
0.514784
8.37133e-11
0.583628
0.509325
8.35943e-11
0.550063
0.504214
8.18269e-11
0.51652
0.499443
8.15688e-11
0.483002
0.495002
7.98097e-11
0.449512
0.490883
7.94209e-11
0.416052
0.487079
7.76701e-11
0.382623
0.483584
7.71555e-11
0.349226
0.480391
7.5413e-11
0.315859
0.477493
7.47805e-11
0.282523
0.474887
7.307e-11
0.249213
0.472568
7.23684e-11
0.21593
0.47053
7.08143e-11
0.18267
0.468771
7.02095e-11
0.149429
0.467287
6.91469e-11
0.116205
0.466076
6.90202e-11
0.0829942
0.465136
6.91513e-11
0.0497928
0.464465
7.05881e-11
0.0165971
0.464063
7.30317e-11
-0.0165967
0.463929
7.73721e-11
-0.0497925
0.464063
7.1638e-11
-0.0829939
0.464465
9.35077e-11
-0.116205
0.465136
8.28414e-11
0.466076
9.49532e-11
0.447976
1.41414
-1.98381e-10
0.524776
1.40495
-1.82105e-10
0.599312
1.39422
-4.43217e-11
0.671281
1.38202
5.75882e-11
0.740402
1.36843
7.51065e-12
0.806414
1.35351
-4.00955e-11
0.869084
1.33737
-6.90868e-11
0.928207
1.3201
-7.47648e-11
0.983609
1.30179
-8.22448e-11
1.03515
1.28256
-8.09697e-11
1.08272
1.26252
-8.81827e-11
1.12625
1.24177
-8.6524e-11
1.1657
1.22042
-9.31617e-11
1.20106
1.1986
-9.24375e-11
1.23237
1.17639
-1.00902e-10
1.25968
1.15392
-1.00402e-10
1.28307
1.13128
-1.07565e-10
1.30265
1.10856
-1.06878e-10
1.31854
1.08586
-1.14169e-10
1.33088
1.06325
-1.1559e-10
1.33983
1.0408
-1.21054e-10
1.34555
1.01859
-1.17919e-10
1.34821
0.996679
-1.22695e-10
1.34797
0.975111
-1.22409e-10
1.34502
0.953938
-1.28173e-10
1.33952
0.933197
-1.25178e-10
1.33165
0.912922
-1.3367e-10
1.32157
0.893142