/*--------------------------------*- C++ -*----------------------------------*\
| =========                 |                                                 |
| \\      /  F ield         | OpenFOAM: The Open Source CFD Toolbox           |
|  \\    /   O peration     | Version:  2306                                  |
|   \\  /    A nd           | Website:  www.openfoam.com                      |
|    \\/     M anipulation  |                                                 |
\*---------------------------------------------------------------------------*/
FoamFile
{
    version     2.0;
    format      ascii;
    arch        "LSB;label=32;scalar=64";
    class       volVectorField;
    location    "25";
    object      U;
}
// * * * * * * * * * * * * * * * * * * * * * * * * * * * * * * * * * * * * * //

dimensions      [0 1 -1 0 0 0 0];

internalField   nonuniform List<vector> 
14400
(
(0.0791056 0.470001 1.73579e-09)
(0.096385 0.468669 1.84505e-09)
(0.114541 0.466922 2.13659e-09)
(0.133838 0.464603 1.97638e-09)
(0.154649 0.461434 2.07077e-09)
(0.177427 0.456847 1.41054e-09)
(0.20246 0.449598 3.28698e-10)
(0.231474 0.436669 -3.46169e-10)
(0.278382 0.408673 -1.46375e-09)
(0.35234 0.333236 -1.54417e-09)
(0.310313 0.151575 -8.1243e-10)
(0.251806 0.0986231 -1.25234e-10)
(0.208071 0.0669412 3.99613e-10)
(0.175832 0.042747 5.0672e-10)
(0.152078 0.0265717 4.14913e-10)
(0.134863 0.0170869 2.57884e-10)
(0.121805 0.0115716 -2.43151e-11)
(0.11135 0.0082423 -1.96576e-10)
(0.102732 0.00613582 -3.5416e-10)
(0.0954846 0.00473322 -3.89833e-10)
(0.089281 0.00375673 -4.00777e-10)
(0.0838878 0.00305451 -3.51553e-10)
(0.0791361 0.0025382 -2.98166e-10)
(0.0748995 0.00215246 -2.37414e-10)
(0.0710826 0.0018604 -1.84286e-10)
(0.0676117 0.00163644 -1.43789e-10)
(0.0644299 0.0014624 -1.10842e-10)
(0.0614926 0.00132523 -9.07577e-11)
(0.0587642 0.00121545 -7.43877e-11)
(0.0562165 0.00112617 -6.59563e-11)
(0.0538262 0.00105235 -5.85458e-11)
(0.0515746 0.00099032 -5.50033e-11)
(0.0494459 0.000937361 -5.15217e-11)
(0.0474269 0.000891477 -4.9562e-11)
(0.0455066 0.000851185 -4.76309e-11)
(0.0436752 0.000815384 -4.60532e-11)
(0.0419246 0.000783245 -4.47379e-11)
(0.0402475 0.000754143 -4.32349e-11)
(0.0386376 0.000727599 -4.2204e-11)
(0.0370894 0.000703245 -4.0752e-11)
(0.0355979 0.000680794 -3.98872e-11)
(0.0341586 0.000660015 -3.85171e-11)
(0.0327675 0.000640727 -3.77683e-11)
(0.031421 0.000622779 -3.6504e-11)
(0.0301158 0.000606047 -3.58437e-11)
(0.0288489 0.000590425 -3.46947e-11)
(0.0276176 0.000575825 -3.41054e-11)
(0.0264194 0.000562169 -3.30715e-11)
(0.025252 0.000549389 -3.25418e-11)
(0.0241132 0.000537426 -3.1618e-11)
(0.0230011 0.000526227 -3.11403e-11)
(0.0219139 0.000515745 -3.03192e-11)
(0.0208497 0.000505935 -2.98879e-11)
(0.0198071 0.000496761 -2.91615e-11)
(0.0187846 0.000488186 -2.87725e-11)
(0.0177807 0.000480178 -2.8133e-11)
(0.0167941 0.000472709 -2.77823e-11)
(0.0158236 0.000465752 -2.72228e-11)
(0.0148681 0.000459282 -2.69072e-11)
(0.0139264 0.000453277 -2.6422e-11)
(0.0129975 0.000447717 -2.61385e-11)
(0.0120803 0.000442584 -2.57242e-11)
(0.011174 0.000437859 -2.54703e-11)
(0.0102775 0.000433528 -2.51252e-11)
(0.00939007 0.000429575 -2.48986e-11)
(0.00851082 0.000425988 -2.46242e-11)
(0.00763893 0.000422754 -2.44239e-11)
(0.00677361 0.00041986 -2.42259e-11)
(0.00591411 0.000417296 -2.40606e-11)
(0.00505967 0.00041505 -2.39514e-11)
(0.00420959 0.000413111 -2.38515e-11)
(0.00336316 0.000411471 -2.38618e-11)
(0.00251968 0.000410124 -2.37625e-11)
(0.00167847 0.000409076 -2.39286e-11)
(0.000838883 0.00040835 -2.36731e-11)
(2.94048e-08 0.000408073 -2.3414e-11)
(-0.000838824 0.000408349 -2.56052e-11)
(-0.00167841 0.000409073 -5.28582e-12)
(-0.00251961 0.00041012 -6.89565e-11)
(-0.00336309 0.000411466 -1.49079e-13)
(0.0903081 0.430641 1.71462e-10)
(0.10959 0.427543 1.65934e-10)
(0.129603 0.423542 4.64102e-10)
(0.150521 0.418374 5.26704e-10)
(0.172542 0.411616 5.05275e-10)
(0.195881 0.402554 3.80398e-10)
(0.220721 0.389884 1.27881e-11)
(0.247273 0.371306 -2.21906e-10)
(0.2758 0.343791 -4.7812e-10)
(0.301507 0.304571 -4.55649e-10)
(0.305791 0.246329 -4.22302e-11)
(0.291259 0.186244 5.17654e-11)
(0.273167 0.137869 3.33397e-10)
(0.255994 0.10399 3.62179e-10)
(0.239587 0.0806118 2.01376e-10)
(0.224195 0.0641134 9.16221e-11)
(0.210131 0.0522144 -1.68917e-10)
(0.197392 0.0434398 -2.83761e-10)
(0.185862 0.036816 -4.02462e-10)
(0.175408 0.0317038 -4.25248e-10)
(0.165896 0.0276829 -4.07151e-10)
(0.157206 0.0244697 -3.64238e-10)
(0.149235 0.0218659 -2.93276e-10)
(0.141893 0.0197286 -2.41614e-10)
(0.135104 0.0179525 -1.77962e-10)
(0.128804 0.016459 -1.44233e-10)
(0.122936 0.0151889 -1.04716e-10)
(0.117453 0.0140976 -8.88834e-11)
(0.112313 0.0131507 -6.85383e-11)
(0.107482 0.0123219 -6.27047e-11)
(0.102927 0.0115909 -5.31011e-11)
(0.0986217 0.0109416 -5.117e-11)
(0.0945421 0.0103612 -4.66283e-11)
(0.0906673 0.00983975 -4.56746e-11)
(0.0869786 0.00936887 -4.33371e-11)
(0.0834595 0.00894189 -4.23836e-11)
(0.0800955 0.00855328 -4.10075e-11)
(0.0768733 0.00819842 -3.98902e-11)
(0.0737814 0.00787344 -3.89641e-11)
(0.0708092 0.00757505 -3.77533e-11)
(0.0679472 0.00730046 -3.70591e-11)
(0.065187 0.00704725 -3.5846e-11)
(0.0625206 0.00681334 -3.52807e-11)
(0.0599411 0.00659692 -3.41259e-11)
(0.0574421 0.00639642 -3.36357e-11)
(0.0550177 0.00621044 -3.25702e-11)
(0.0526626 0.00603776 -3.21265e-11)
(0.0503718 0.00587729 -3.11617e-11)
(0.0481407 0.00572807 -3.07501e-11)
(0.0459652 0.00558925 -2.98866e-11)
(0.0438415 0.00546006 -2.95011e-11)
(0.0417658 0.0053398 -2.87339e-11)
(0.039735 0.00522788 -2.83725e-11)
(0.0377457 0.00512372 -2.7694e-11)
(0.0357953 0.00502685 -2.73564e-11)
(0.0338808 0.00493679 -2.67582e-11)
(0.0319998 0.00485316 -2.64446e-11)
(0.0301498 0.00477558 -2.59185e-11)
(0.0283286 0.00470373 -2.56294e-11)
(0.0265339 0.0046373 -2.51684e-11)
(0.0247639 0.00457602 -2.4904e-11)
(0.0230164 0.00451965 -2.45028e-11)
(0.0212897 0.00446798 -2.42638e-11)
(0.0195819 0.0044208 -2.39188e-11)
(0.0178914 0.00437793 -2.37058e-11)
(0.0162166 0.00433922 -2.34158e-11)
(0.0145558 0.00430452 -2.32286e-11)
(0.0129075 0.0042737 -2.29944e-11)
(0.0112702 0.00424666 -2.28353e-11)
(0.00964256 0.00422328 -2.26609e-11)
(0.00802306 0.00420349 -2.25365e-11)
(0.00641034 0.00418722 -2.24343e-11)
(0.00480303 0.00417443 -2.22792e-11)
(0.00319979 0.00416511 -2.22126e-11)
(0.0015994 0.00415934 -2.1992e-11)
(1.48157e-08 0.00415737 -2.16463e-11)
(-0.00159937 0.00415934 -2.2966e-11)
(-0.00319976 0.0041651 -1.02587e-11)
(-0.004803 0.00417442 -4.8695e-11)
(-0.00641031 0.00418721 -1.6409e-11)
(0.0860827 0.378787 -2.39559e-10)
(0.103995 0.374289 -3.96589e-10)
(0.122273 0.368635 -1.08853e-10)
(0.140948 0.361591 -7.6528e-11)
(0.160019 0.35282 -5.06608e-11)
(0.179422 0.341825 -5.43115e-11)
(0.198949 0.327854 -4.50129e-11)
(0.218114 0.309855 -6.85016e-11)
(0.236042 0.286583 2.52354e-12)
(0.251089 0.256954 6.37892e-12)
(0.259825 0.221226 1.62671e-10)
(0.261159 0.186434 1.82294e-10)
(0.256732 0.156071 2.22173e-10)
(0.248599 0.131159 1.84995e-10)
(0.23855 0.111345 5.23278e-11)
(0.227753 0.0956834 -2.94443e-11)
(0.216869 0.0832033 -1.74501e-10)
(0.206257 0.0731249 -2.37551e-10)
(0.196102 0.06487 -2.9189e-10)
(0.186489 0.0580213 -3.00243e-10)
(0.177445 0.0522762 -2.76332e-10)
(0.168965 0.0474113 -2.51206e-10)
(0.161024 0.0432574 -2.00917e-10)
(0.153591 0.039684 -1.72491e-10)
(0.146629 0.0365884 -1.2923e-10)
(0.140102 0.0338895 -1.11108e-10)
(0.133973 0.0315223 -8.3722e-11)
(0.128206 0.0294342 -7.54631e-11)
(0.122771 0.0275829 -6.06128e-11)
(0.117637 0.0259335 -5.77115e-11)
(0.112778 0.0244575 -5.01145e-11)
(0.108169 0.0231312 -4.91448e-11)
(0.103787 0.021935 -4.51545e-11)
(0.0996146 0.0208522 -4.45115e-11)
(0.0956325 0.019869 -4.22147e-11)
(0.0918251 0.0189735 -4.14157e-11)
(0.0881781 0.0181558 -3.99322e-11)
(0.0846786 0.0174071 -3.89539e-11)
(0.0813148 0.0167201 -3.78928e-11)
(0.0780763 0.0160884 -3.68276e-11)
(0.0749536 0.0155064 -3.60056e-11)
(0.0719379 0.0149693 -3.49384e-11)
(0.0690213 0.0144729 -3.42601e-11)
(0.0661966 0.0140134 -3.32438e-11)
(0.0634573 0.0135875 -3.26554e-11)
(0.0607973 0.0131925 -3.17161e-11)
(0.0582111 0.0128256 -3.11873e-11)
(0.0556934 0.0124847 -3.03348e-11)
(0.0532396 0.0121677 -2.98491e-11)
(0.0508452 0.0118728 -2.90839e-11)
(0.0485063 0.0115984 -2.86331e-11)
(0.046219 0.0113429 -2.79512e-11)
(0.0439798 0.0111052 -2.75315e-11)
(0.0417854 0.0108841 -2.69265e-11)
(0.0396327 0.0106784 -2.65364e-11)
(0.0375188 0.0104872 -2.60013e-11)
(0.0354409 0.0103097 -2.564e-11)
(0.0333966 0.0101451 -2.51677e-11)
(0.0313832 0.0099927 -2.48348e-11)
(0.0293986 0.00985182 -2.44192e-11)
(0.0274405 0.00972191 -2.41146e-11)
(0.0255069 0.00960245 -2.3751e-11)
(0.0235957 0.00949298 -2.3475e-11)
(0.021705 0.00939307 -2.31602e-11)
(0.019833 0.00930236 -2.29145e-11)
(0.0179779 0.00922051 -2.2648e-11)
(0.0161379 0.00914721 -2.24366e-11)
(0.0143115 0.0090822 -2.2221e-11)
(0.012497 0.00902525 -2.2058e-11)
(0.0106928 0.00897616 -2.18978e-11)
(0.00889742 0.00893476 -2.1813e-11)
(0.00710931 0.00890093 -2.17201e-11)
(0.00532697 0.00887456 -2.16445e-11)
(0.00354896 0.00885562 -2.16173e-11)
(0.00177399 0.00884416 -2.14109e-11)
(2.21087e-08 0.00884031 -2.1057e-11)
(-0.00177395 0.00884416 -2.32975e-11)
(-0.00354892 0.00885562 -5.92299e-12)
(-0.00532693 0.00887455 -5.90435e-11)
(-0.00710927 0.00890092 -3.31207e-12)
(0.0769189 0.335126 -5.00372e-10)
(0.0924427 0.330191 -4.98219e-10)
(0.107998 0.324119 -2.96423e-10)
(0.12354 0.316768 -2.7144e-10)
(0.138985 0.307956 -2.38225e-10)
(0.154189 0.297452 -2.21941e-10)
(0.168912 0.284969 -1.62279e-10)
(0.182756 0.270192 -1.40873e-10)
(0.195119 0.252884 -6.95998e-11)
(0.205178 0.233053 -4.93992e-11)
(0.211852 0.211228 -8.59245e-12)
(0.214616 0.18919 -7.04905e-12)
(0.213887 0.1685 -3.06118e-11)
(0.21054 0.149991 -5.55776e-11)
(0.205462 0.133842 -1.24582e-10)
(0.199334 0.119883 -1.55017e-10)
(0.19263 0.107837 -2.06585e-10)
(0.185665 0.0974227 -2.17223e-10)
(0.178648 0.0883919 -2.23406e-10)
(0.17171 0.0805352 -2.08502e-10)
(0.164935 0.0736778 -1.81589e-10)
(0.158372 0.0676735 -1.56015e-10)
(0.152049 0.0623992 -1.21204e-10)
(0.14598 0.0577508 -9.9325e-11)
(0.140167 0.0536402 -7.16279e-11)
(0.134608 0.0499928 -5.8493e-11)
(0.129295 0.0467451 -4.114e-11)
(0.124219 0.0438436 -3.52343e-11)
(0.119368 0.0412425 -2.58244e-11)
(0.11473 0.0389032 -2.39877e-11)
(0.110292 0.0367927 -1.93117e-11)
(0.106042 0.0348828 -1.91811e-11)
(0.101968 0.0331496 -1.69661e-11)
(0.0980589 0.0315723 -1.73153e-11)
(0.0943033 0.0301334 -1.62919e-11)
(0.090691 0.0288174 -1.664e-11)
(0.0872126 0.0276113 -1.6177e-11)
(0.0838591 0.0265035 -1.63964e-11)
(0.0806219 0.0254841 -1.61914e-11)
(0.0774934 0.0245443 -1.62827e-11)
(0.0744663 0.0236765 -1.61882e-11)
(0.0715338 0.0228739 -1.61833e-11)
(0.0686897 0.0221308 -1.61253e-11)
(0.0659281 0.0214418 -1.60555e-11)
(0.0632437 0.0208024 -1.59975e-11)
(0.0606313 0.0202083 -1.58872e-11)
(0.0580864 0.0196561 -1.58129e-11)
(0.0556045 0.0191423 -1.56797e-11)
(0.0531816 0.018664 -1.55847e-11)
(0.0508137 0.0182187 -1.54407e-11)
(0.0484974 0.0178039 -1.53264e-11)
(0.0462292 0.0174177 -1.51799e-11)
(0.0440061 0.0170579 -1.50506e-11)
(0.041825 0.016723 -1.49067e-11)
(0.0396831 0.0164114 -1.47671e-11)
(0.0375778 0.0161216 -1.46287e-11)
(0.0355066 0.0158524 -1.44834e-11)
(0.0334672 0.0156027 -1.43523e-11)
(0.0314571 0.0153713 -1.42052e-11)
(0.0294744 0.0151574 -1.40824e-11)
(0.0275169 0.0149602 -1.3937e-11)
(0.0255827 0.0147788 -1.38235e-11)
(0.0236699 0.0146125 -1.3683e-11)
(0.0217767 0.0144607 -1.35802e-11)
(0.0199014 0.0143229 -1.34479e-11)
(0.0180422 0.0141986 -1.33584e-11)
(0.0161976 0.0140873 -1.32366e-11)
(0.0143659 0.0139887 -1.31626e-11)
(0.0125457 0.0139023 -1.30495e-11)
(0.0107353 0.0138279 -1.29883e-11)
(0.00893336 0.0137652 -1.28646e-11)
(0.0071384 0.0137141 -1.27969e-11)
(0.00534898 0.0136744 -1.25803e-11)
(0.00356372 0.013646 -1.24065e-11)
(0.00178139 0.0136289 -1.20768e-11)
(2.10627e-08 0.0136231 -1.16952e-11)
(-0.00178135 0.0136289 -1.2005e-11)
(-0.00356368 0.013646 -6.33464e-12)
(-0.00534894 0.0136744 -2.28213e-11)
(-0.00713836 0.0137141 -1.35246e-11)
(0.0657635 0.296328 -5.70716e-10)
(0.0786845 0.29159 -4.08325e-10)
(0.0914334 0.285867 -2.61639e-10)
(0.103937 0.279096 -2.39669e-10)
(0.116095 0.271205 -2.10175e-10)
(0.127772 0.26212 -1.88121e-10)
(0.138784 0.251771 -1.51419e-10)
(0.148882 0.240112 -1.26117e-10)
(0.157753 0.227168 -9.76224e-11)
(0.165028 0.213091 -7.94953e-11)
(0.17034 0.198232 -7.6318e-11)
(0.173516 0.183212 -7.22456e-11)
(0.174683 0.168647 -9.49358e-11)
(0.174158 0.154957 -1.01881e-10)
(0.17231 0.142343 -1.32227e-10)
(0.169475 0.130853 -1.38259e-10)
(0.165927 0.120454 -1.54393e-10)
(0.161884 0.111077 -1.50456e-10)
(0.157511 0.102637 -1.46597e-10)
(0.152935 0.0950462 -1.34441e-10)
(0.148251 0.08822 -1.17937e-10)
(0.143531 0.0820791 -1.03554e-10)
(0.138827 0.0765502 -8.50888e-11)
(0.134178 0.0715666 -7.37951e-11)
(0.129611 0.0670683 -5.93516e-11)
(0.125145 0.0630019 -5.25308e-11)
(0.120793 0.0593194 -4.32524e-11)
(0.116562 0.0559788 -3.98367e-11)
(0.112456 0.0529427 -3.45496e-11)
(0.108475 0.0501781 -3.29962e-11)
(0.10462 0.047656 -3.01815e-11)
(0.100887 0.0453509 -2.93958e-11)
(0.0972732 0.0432402 -2.79391e-11)
(0.0937741 0.0413041 -2.73687e-11)
(0.0903852 0.0395252 -2.66131e-11)
(0.0871017 0.0378879 -2.60541e-11)
(0.0839186 0.0363787 -2.56495e-11)
(0.080831 0.0349854 -2.50598e-11)
(0.0778341 0.0336973 -2.48249e-11)
(0.074923 0.0325049 -2.42169e-11)
(0.0720931 0.0313997 -2.40564e-11)
(0.06934 0.0303743 -2.34518e-11)
(0.0666595 0.0294219 -2.33153e-11)
(0.0640474 0.0285364 -2.27312e-11)
(0.0614999 0.0277126 -2.25932e-11)
(0.0590132 0.0269455 -2.20407e-11)
(0.0565839 0.0262308 -2.18906e-11)
(0.0542086 0.0255647 -2.13756e-11)
(0.0518842 0.0249436 -2.12113e-11)
(0.0496076 0.0243643 -2.07365e-11)
(0.047376 0.023824 -2.056e-11)
(0.0451866 0.0233202 -2.01258e-11)
(0.043037 0.0228504 -1.99414e-11)
(0.0409245 0.0224125 -1.95467e-11)
(0.0388469 0.0220046 -1.93589e-11)
(0.036802 0.021625 -1.9002e-11)
(0.0347876 0.0212721 -1.8815e-11)
(0.0328017 0.0209444 -1.8494e-11)
(0.0308422 0.0206406 -1.83119e-11)
(0.0289075 0.0203596 -1.8025e-11)
(0.0269956 0.0201002 -1.78514e-11)
(0.0251048 0.0198616 -1.75978e-11)
(0.0232335 0.0196428 -1.74368e-11)
(0.02138 0.0194431 -1.72169e-11)
(0.0195429 0.0192616 -1.70739e-11)
(0.0177204 0.0190979 -1.68909e-11)
(0.0159113 0.0189513 -1.67751e-11)
(0.0141141 0.0188213 -1.66352e-11)
(0.0123273 0.0187075 -1.65634e-11)
(0.0105496 0.0186096 -1.64721e-11)
(0.0087796 0.0185271 -1.64656e-11)
(0.00701605 0.0184598 -1.64204e-11)
(0.00525759 0.0184076 -1.64072e-11)
(0.00350297 0.0183704 -1.63677e-11)
(0.00175106 0.018348 -1.62029e-11)
(2.1188e-08 0.0183405 -1.58411e-11)
(-0.00175102 0.018348 -1.78304e-11)
(-0.00350293 0.0183704 -3.4479e-12)
(-0.00525755 0.0184076 -4.62015e-11)
(-0.00701601 0.0184598 4.63882e-13)
(0.0551978 0.265251 -1.0349e-10)
(0.065827 0.261087 -7.19459e-11)
(0.0762007 0.256123 -4.8547e-11)
(0.086248 0.250341 -5.01548e-11)
(0.0958838 0.24373 -4.37386e-11)
(0.105006 0.236284 -4.05182e-11)
(0.113494 0.228012 -3.21191e-11)
(0.121208 0.218946 -2.87118e-11)
(0.127992 0.209159 -2.66781e-11)
(0.133689 0.198775 -2.6974e-11)
(0.138168 0.187992 -3.46292e-11)
(0.141369 0.177071 -3.84691e-11)
(0.143334 0.166277 -5.16707e-11)
(0.144183 0.155825 -5.53851e-11)
(0.14407 0.145856 -6.65361e-11)
(0.143156 0.136456 -6.68385e-11)
(0.141592 0.127664 -6.97678e-11)
(0.139508 0.119489 -6.42516e-11)
(0.137019 0.11192 -5.93846e-11)
(0.134219 0.104935 -5.10302e-11)
(0.131188 0.0985038 -4.22022e-11)
(0.127991 0.0925917 -3.4244e-11)
(0.12468 0.0871623 -2.55283e-11)
(0.121299 0.0821788 -1.99048e-11)
(0.117882 0.0776052 -1.34246e-11)
(0.114456 0.0734072 -1.0423e-11)
(0.111043 0.0695523 -6.4701e-12)
(0.107658 0.0660103 -5.40441e-12)
(0.104314 0.0627532 -3.39114e-12)
(0.101021 0.0597555 -3.41962e-12)
(0.097786 0.0569939 -2.62981e-12)
(0.0946124 0.054447 -3.13438e-12)
(0.0915037 0.0520958 -3.02289e-12)
(0.0884617 0.0499227 -3.65482e-12)
(0.0854867 0.0479121 -3.87942e-12)
(0.0825789 0.0460499 -4.47846e-12)
(0.0797372 0.0443233 -4.84342e-12)
(0.0769604 0.0427208 -5.35158e-12)
(0.074247 0.041232 -5.74948e-12)
(0.071595 0.0398476 -6.1555e-12)
(0.0690023 0.0385591 -6.52936e-12)
(0.0664669 0.037359 -6.84066e-12)
(0.0639864 0.0362404 -7.16266e-12)
(0.0615585 0.0351972 -7.39295e-12)
(0.0591811 0.0342235 -7.65276e-12)
(0.0568516 0.0333145 -7.81696e-12)
(0.054568 0.0324654 -8.01452e-12)
(0.0523279 0.0316722 -8.12654e-12)
(0.0501293 0.0309309 -8.26736e-12)
(0.0479699 0.0302382 -8.33918e-12)
(0.0458478 0.029591 -8.43124e-12)
(0.0437609 0.0289863 -8.47271e-12)
(0.0417073 0.0284216 -8.52464e-12)
(0.0396851 0.0278945 -8.54357e-12)
(0.0376926 0.0274028 -8.5635e-12)
(0.0357279 0.0269447 -8.56596e-12)
(0.0337894 0.0265182 -8.56115e-12)
(0.0318754 0.0261219 -8.55193e-12)
(0.0299844 0.0257541 -8.52871e-12)
(0.0281148 0.0254135 -8.51175e-12)
(0.026265 0.025099 -8.47573e-12)
(0.0244337 0.0248094 -8.45458e-12)
(0.0226195 0.0245437 -8.41111e-12)
(0.020821 0.024301 -8.38954e-12)
(0.0190367 0.0240804 -8.34402e-12)
(0.0172655 0.0238812 -8.32678e-12)
(0.0155061 0.0237029 -8.28385e-12)
(0.0137571 0.0235447 -8.27572e-12)
(0.0120175 0.0234062 -8.23449e-12)
(0.0102858 0.0232869 -8.23447e-12)
(0.00856112 0.0231865 -8.1731e-12)
(0.00684209 0.0231047 -8.15978e-12)
(0.0051276 0.0230412 -8.00119e-12)
(0.00341654 0.0229959 -7.88267e-12)
(0.0017079 0.0229687 -7.60229e-12)
(1.70697e-08 0.0229596 -7.33697e-12)
(-0.00170787 0.0229687 -7.41172e-12)
(-0.0034165 0.0229959 -3.90894e-12)
(-0.00512757 0.0230412 -1.36237e-11)
(-0.00684206 0.0231047 -8.98839e-12)
(0.0459644 0.239353 -3.45363e-11)
(0.0547069 0.23583 6.15905e-12)
(0.0631867 0.23167 -4.39975e-12)
(0.0713458 0.226878 -5.69136e-12)
(0.07912 0.221466 -7.98183e-12)
(0.0864394 0.215453 -8.50058e-12)
(0.0932285 0.208871 -1.06971e-11)
(0.0994085 0.201766 -1.20947e-11)
(0.104901 0.194204 -1.69926e-11)
(0.109635 0.186275 -1.95695e-11)
(0.113557 0.178091 -2.65196e-11)
(0.116645 0.169785 -2.90124e-11)
(0.118912 0.16149 -3.56923e-11)
(0.120407 0.153323 -3.65975e-11)
(0.121198 0.145379 -4.06722e-11)
(0.121362 0.137728 -3.92707e-11)
(0.120981 0.130416 -3.96966e-11)
(0.120131 0.123472 -3.63605e-11)
(0.118885 0.116912 -3.38948e-11)
(0.11731 0.110738 -2.9895e-11)
(0.115464 0.104948 -2.62183e-11)
(0.113398 0.0995315 -2.27576e-11)
(0.111158 0.0944738 -1.93158e-11)
(0.108781 0.0897585 -1.6966e-11)
(0.106301 0.0853671 -1.44691e-11)
(0.103745 0.0812805 -1.31999e-11)
(0.101137 0.0774794 -1.17205e-11)
(0.0984958 0.0739446 -1.12038e-11)
(0.0958372 0.0706576 -1.05128e-11)
(0.0931744 0.0676008 -1.0403e-11)
(0.090518 0.0647572 -1.02222e-11)
(0.0878764 0.0621112 -1.02771e-11)
(0.0852564 0.059648 -1.03863e-11)
(0.0826632 0.0573538 -1.04737e-11)
(0.0801008 0.055216 -1.07256e-11)
(0.0775722 0.0532227 -1.07881e-11)
(0.0750795 0.0513632 -1.10921e-11)
(0.0726241 0.0496275 -1.11119e-11)
(0.070207 0.0480064 -1.14139e-11)
(0.0678284 0.0464917 -1.13908e-11)
(0.0654884 0.0450756 -1.16606e-11)
(0.0631868 0.043751 -1.16007e-11)
(0.0609229 0.0425116 -1.18234e-11)
(0.058696 0.0413515 -1.17346e-11)
(0.0565052 0.0402652 -1.19053e-11)
(0.0543495 0.0392478 -1.17954e-11)
(0.0522278 0.0382948 -1.19157e-11)
(0.050139 0.0374021 -1.17917e-11)
(0.0480817 0.0365658 -1.18664e-11)
(0.0460547 0.0357825 -1.17339e-11)
(0.0440568 0.0350489 -1.17698e-11)
(0.0420867 0.0343623 -1.16333e-11)
(0.040143 0.0337199 -1.16372e-11)
(0.0382246 0.0331192 -1.15001e-11)
(0.0363301 0.032558 -1.14786e-11)
(0.0344583 0.0320343 -1.13435e-11)
(0.0326079 0.0315462 -1.13024e-11)
(0.0307777 0.0310919 -1.11712e-11)
(0.0289665 0.0306699 -1.11156e-11)
(0.0271731 0.0302787 -1.09897e-11)
(0.0253964 0.0299171 -1.0924e-11)
(0.0236351 0.0295838 -1.08048e-11)
(0.0218882 0.0292778 -1.07334e-11)
(0.0201545 0.028998 -1.06227e-11)
(0.018433 0.0287436 -1.05507e-11)
(0.0167225 0.0285138 -1.04519e-11)
(0.0150221 0.0283078 -1.03869e-11)
(0.0133306 0.0281251 -1.03051e-11)
(0.0116471 0.0279651 -1.02597e-11)
(0.0099705 0.0278272 -1.01989e-11)
(0.00829979 0.0277112 -1.01865e-11)
(0.00663398 0.0276166 -1.0142e-11)
(0.00497207 0.0275433 -1.01127e-11)
(0.00331311 0.0274909 -1.005e-11)
(0.00165625 0.0274595 -9.92186e-12)
(1.69329e-08 0.027449 -9.62178e-12)
(-0.00165622 0.0274595 -1.10134e-11)
(-0.00331307 0.0274909 -1.39239e-12)
(-0.00497203 0.0275433 -2.95802e-11)
(-0.00663394 0.0276166 1.83559e-12)
(0.0382512 0.218022 7.16783e-11)
(0.0454813 0.215115 6.90408e-11)
(0.0524753 0.211702 3.88486e-11)
(0.0591882 0.207798 3.29989e-11)
(0.0655734 0.203421 2.84345e-11)
(0.0715833 0.198597 2.58372e-11)
(0.0771697 0.193357 2.21303e-11)
(0.0822863 0.187745 1.94914e-11)
(0.0868899 0.181809 1.49063e-11)
(0.0909447 0.175612 1.21771e-11)
(0.0944253 0.169224 7.65506e-12)
(0.0973206 0.16272 5.71495e-12)
(0.0996363 0.156176 2.27578e-12)
(0.101393 0.149666 1.63344e-12)
(0.102623 0.143249 -2.02103e-13)
(0.103366 0.136978 3.94613e-13)
(0.103666 0.130893 8.94892e-14)
(0.10357 0.125025 1.42335e-12)
(0.103122 0.119395 2.11945e-12)
(0.102367 0.114017 3.54867e-12)
(0.101345 0.108899 4.57901e-12)
(0.100095 0.104043 5.62275e-12)
(0.0986504 0.0994464 6.48904e-12)
(0.0970428 0.0951056 6.95734e-12)
(0.0952996 0.0910131 7.43542e-12)
(0.0934453 0.0871599 7.37756e-12)
(0.0915013 0.0835361 7.45497e-12)
(0.0894862 0.0801307 7.02966e-12)
(0.087416 0.0769328 6.79767e-12)
(0.0853045 0.073931 6.17189e-12)
(0.0831637 0.0711142 5.74119e-12)
(0.0810033 0.0684714 5.04123e-12)
(0.0788321 0.0659922 4.50583e-12)
(0.0766569 0.0636663 3.81159e-12)
(0.0744837 0.0614841 3.24023e-12)
(0.0723174 0.0594366 2.59582e-12)
(0.0701619 0.057515 2.03521e-12)
(0.0680206 0.0557113 1.46152e-12)
(0.0658959 0.054018 9.41373e-13)
(0.0637898 0.052428 4.45321e-13)
(0.0617039 0.0509347 -1.75169e-14)
(0.0596393 0.049532 -4.37236e-13)
(0.0575967 0.0482142 -8.35318e-13)
(0.0555767 0.0469761 -1.18449e-12)
(0.0535795 0.0458127 -1.51711e-12)
(0.0516052 0.0447195 -1.8038e-12)
(0.0496536 0.0436924 -2.07453e-12)
(0.0477244 0.0427275 -2.30737e-12)
(0.0458173 0.0418212 -2.52213e-12)
(0.0439317 0.0409702 -2.70945e-12)
(0.0420671 0.0401714 -2.87514e-12)
(0.0402229 0.0394221 -3.02442e-12)
(0.0383983 0.0387195 -3.14806e-12)
(0.0365927 0.0380614 -3.26581e-12)
(0.0348052 0.0374456 -3.35393e-12)
(0.0330351 0.0368698 -3.4456e-12)
(0.0312816 0.0363324 -3.50405e-12)
(0.0295438 0.0358316 -3.57414e-12)
(0.0278209 0.0353657 -3.60802e-12)
(0.0261122 0.0349333 -3.66029e-12)
(0.0244166 0.0345332 -3.67408e-12)
(0.0227334 0.034164 -3.71172e-12)
(0.0210618 0.0338247 -3.70948e-12)
(0.0194008 0.0335142 -3.73553e-12)
(0.0177497 0.0332318 -3.72111e-12)
(0.0161076 0.0329764 -3.73888e-12)
(0.0144737 0.0327474 -3.71517e-12)
(0.0128471 0.0325441 -3.72773e-12)
(0.0112271 0.032366 -3.69294e-12)
(0.00961268 0.0322126 -3.69935e-12)
(0.00800317 0.0320834 -3.63611e-12)
(0.0063977 0.0319781 -3.62164e-12)
(0.00479545 0.0318964 -3.48376e-12)
(0.00319564 0.0318381 -3.39109e-12)
(0.00159759 0.0318031 -3.17964e-12)
(1.30449e-08 0.0317914 -3.03741e-12)
(-0.00159756 0.0318031 -2.83079e-12)
(-0.00319561 0.0318381 -1.97646e-12)
(-0.00479542 0.0318964 -4.0755e-12)
(-0.00639767 0.0319781 -5.8347e-12)
(0.03191 0.200297 6.58659e-11)
(0.0379295 0.197921 6.60582e-11)
(0.0437496 0.195141 3.29601e-11)
(0.0493364 0.191974 2.97261e-11)
(0.0546559 0.188438 2.5157e-11)
(0.0596748 0.184557 2.31842e-11)
(0.0643611 0.180359 1.98993e-11)
(0.0686855 0.175877 1.77352e-11)
(0.0726219 0.171149 1.41914e-11)
(0.0761495 0.166217 1.206e-11)
(0.0792538 0.161128 8.93712e-12)
(0.081928 0.155931 7.38927e-12)
(0.0841738 0.150673 5.10946e-12)
(0.0860006 0.145402 4.29692e-12)
(0.0874245 0.14016 2.92132e-12)
(0.088467 0.134984 2.70705e-12)
(0.089153 0.129907 2.05425e-12)
(0.08951 0.124954 2.16286e-12)
(0.0895664 0.120147 1.94762e-12)
(0.0893509 0.115501 2.1089e-12)
(0.0888914 0.111028 2.05973e-12)
(0.088215 0.106735 2.10043e-12)
(0.0873471 0.102627 2.03294e-12)
(0.0863114 0.0987054 1.89527e-12)
(0.0851298 0.0949693 1.72358e-12)
(0.0838224 0.0914162 1.43075e-12)
(0.0824072 0.0880424 1.14145e-12)
(0.0809007 0.0848428 7.51165e-13)
(0.0793173 0.0818115 3.68053e-13)
(0.0776701 0.0789423 -6.18629e-14)
(0.0759704 0.0762285 -5.03482e-13)
(0.0742284 0.0736631 -9.29684e-13)
(0.0724528 0.0712391 -1.39563e-12)
(0.0706514 0.0689496 -1.79097e-12)
(0.0688307 0.0667879 -2.25283e-12)
(0.0669966 0.0647472 -2.60283e-12)
(0.0651539 0.0628211 -3.03906e-12)
(0.0633069 0.0610034 -3.33772e-12)
(0.0614591 0.0592883 -3.73347e-12)
(0.0596136 0.05767 -3.98023e-12)
(0.0577728 0.0561433 -4.32684e-12)
(0.0559389 0.0547032 -4.52457e-12)
(0.0541135 0.0533448 -4.81883e-12)
(0.0522981 0.0520637 -4.97247e-12)
(0.0504938 0.0508557 -5.21464e-12)
(0.0487013 0.0497168 -5.32942e-12)
(0.0469214 0.0486434 -5.52242e-12)
(0.0451544 0.0476321 -5.60387e-12)
(0.0434006 0.0466795 -5.75217e-12)
(0.0416603 0.0457828 -5.80551e-12)
(0.0399333 0.044939 -5.91426e-12)
(0.0382197 0.0441457 -5.94417e-12)
(0.0365193 0.0434004 -6.01861e-12)
(0.0348317 0.0427008 -6.02915e-12)
(0.0331568 0.0420448 -6.07424e-12)
(0.0314941 0.0414306 -6.06884e-12)
(0.0298433 0.0408563 -6.08909e-12)
(0.0282038 0.0403203 -6.07065e-12)
(0.0265752 0.039821 -6.07013e-12)
(0.024957 0.039357 -6.04111e-12)
(0.0233486 0.0389271 -6.02353e-12)
(0.0217495 0.03853 -5.98613e-12)
(0.0201591 0.0381647 -5.9551e-12)
(0.0185769 0.0378302 -5.91161e-12)
(0.0170022 0.0375255 -5.87134e-12)
(0.0154344 0.0372499 -5.82479e-12)
(0.0138729 0.0370025 -5.78134e-12)
(0.0123171 0.0367829 -5.73599e-12)
(0.0107664 0.0365903 -5.69926e-12)
(0.0092201 0.0364244 -5.65877e-12)
(0.00767761 0.0362846 -5.64053e-12)
(0.00613829 0.0361706 -5.60361e-12)
(0.0046015 0.0360822 -5.57922e-12)
(0.00306662 0.0360191 -5.52997e-12)
(0.00153315 0.0359812 -5.46296e-12)
(1.33702e-08 0.0359686 -5.26843e-12)
(-0.00153313 0.0359812 -6.22275e-12)
(-0.0030666 0.0360191 -2.17603e-13)
(-0.00460147 0.0360822 -1.76586e-11)
(-0.00613826 0.0361706 2.54989e-12)
(0.0267351 0.185483 6.2949e-11)
(0.0317816 0.183547 5.78088e-11)
(0.0366653 0.181287 3.2671e-11)
(0.0413602 0.178717 2.96274e-11)
(0.045841 0.175854 2.65334e-11)
(0.0500838 0.172717 2.51771e-11)
(0.0540663 0.169329 2.30178e-11)
(0.0577683 0.165716 2.18712e-11)
(0.0611725 0.161905 1.95043e-11)
(0.0642653 0.157927 1.83443e-11)
(0.0670369 0.153814 1.64098e-11)
(0.0694822 0.1496 1.57027e-11)
(0.071601 0.145317 1.42436e-11)
(0.0733973 0.140998 1.38669e-11)
(0.0748795 0.136674 1.28695e-11)
(0.0760593 0.13237 1.27146e-11)
(0.0769514 0.128113 1.20571e-11)
(0.0775724 0.123924 1.20026e-11)
(0.0779401 0.119821 1.15582e-11)
(0.0780734 0.115819 1.14854e-11)
(0.0779912 0.111929 1.11307e-11)
(0.0777124 0.108162 1.09642e-11)
(0.0772555 0.104523 1.06206e-11)
(0.0766379 0.101019 1.03382e-11)
(0.0758766 0.0976505 9.96455e-12)
(0.0749873 0.09442 9.57783e-12)
(0.0739847 0.091327 9.16187e-12)
(0.0728822 0.0883702 8.69955e-12)
(0.0716924 0.0855473 8.24638e-12)
(0.0704267 0.0828556 7.74032e-12)
(0.0690952 0.0802915 7.26345e-12)
(0.0677074 0.0778511 6.74361e-12)
(0.0662716 0.0755302 6.26069e-12)
(0.0647952 0.0733246 5.75251e-12)
(0.0632849 0.0712296 5.28265e-12)
(0.0617467 0.0692408 4.80445e-12)
(0.0601857 0.0673536 4.36291e-12)
(0.0586066 0.0655635 3.92624e-12)
(0.0570133 0.0638663 3.52396e-12)
(0.0554096 0.0622576 3.13462e-12)
(0.0537983 0.0607333 2.77782e-12)
(0.0521822 0.0592895 2.43536e-12)
(0.0505636 0.0579224 2.11895e-12)
(0.0489445 0.0566283 1.81483e-12)
(0.0473265 0.0554038 1.54091e-12)
(0.0457109 0.0542455 1.27763e-12)
(0.0440991 0.0531505 1.0464e-12)
(0.042492 0.0521157 8.20791e-13)
(0.0408904 0.0511384 6.29327e-13)
(0.0392948 0.0502159 4.37506e-13)
(0.0377059 0.0493459 2.82249e-13)
(0.0361239 0.0485259 1.20403e-13)
(0.0345492 0.0477539 -2.39901e-15)
(0.0329818 0.0470277 -1.37827e-13)
(0.0314219 0.0463456 -2.31858e-13)
(0.0298695 0.0457057 -3.44054e-13)
(0.0283244 0.0451064 -4.1274e-13)
(0.0267866 0.0445462 -5.04501e-13)
(0.0252558 0.0440236 -5.51007e-13)
(0.0237319 0.0435374 -6.24723e-13)
(0.0222147 0.0430862 -6.51926e-13)
(0.0207037 0.042669 -7.09693e-13)
(0.0191988 0.0422848 -7.20247e-13)
(0.0176994 0.0419326 -7.63969e-13)
(0.0162054 0.0416116 -7.60294e-13)
(0.0147163 0.041321 -7.91983e-13)
(0.0132316 0.04106 -7.75655e-13)
(0.011751 0.0408281 -7.97004e-13)
(0.0102741 0.0406246 -7.65876e-13)
(0.00880036 0.0404492 -7.76133e-13)
(0.0073294 0.0403014 -7.17491e-13)
(0.00586075 0.0401809 -7.08472e-13)
(0.00439394 0.0400873 -5.99825e-13)
(0.00292853 0.0400206 -5.43146e-13)
(0.00146418 0.0399806 -4.01141e-13)
(9.81722e-09 0.0399672 -3.60186e-13)
(-0.00146416 0.0399806 -2.4497e-15)
(-0.00292851 0.0400206 -8.43324e-13)
(-0.00439392 0.0400873 1.7135e-12)
(-0.00586073 0.0401809 -3.73046e-12)
(0.0225153 0.173022 5.82067e-11)
(0.0267745 0.171443 5.08595e-11)
(0.0309027 0.169602 2.78182e-11)
(0.0348799 0.167509 2.59114e-11)
(0.038687 0.165178 2.32347e-11)
(0.0423059 0.162627 2.20911e-11)
(0.0457205 0.159871 2.03566e-11)
(0.048916 0.156931 1.92421e-11)
(0.0518801 0.153828 1.74907e-11)
(0.0546027 0.150583 1.63812e-11)
(0.0570766 0.147221 1.48235e-11)
(0.0592975 0.143765 1.39081e-11)
(0.061264 0.140239 1.26802e-11)
(0.0629774 0.136665 1.19695e-11)
(0.064442 0.133067 1.10208e-11)
(0.0656644 0.129465 1.04037e-11)
(0.066653 0.125878 9.61276e-12)
(0.067418 0.122324 9.09669e-12)
(0.0679709 0.118816 8.48633e-12)
(0.068324 0.11537 8.04773e-12)
(0.0684901 0.111995 7.54869e-12)
(0.0684823 0.108701 7.10487e-12)
(0.0683137 0.105496 6.65019e-12)
(0.0679974 0.102385 6.20009e-12)
(0.0675459 0.0993733 5.76579e-12)
(0.0669713 0.0964635 5.30923e-12)
(0.0662851 0.0936576 4.88192e-12)
(0.0654984 0.0909566 4.42662e-12)
(0.0646212 0.0883606 4.00104e-12)
(0.0636633 0.0858689 3.54747e-12)
(0.0626334 0.0834803 3.12089e-12)
(0.0615397 0.0811932 2.68377e-12)
(0.0603896 0.0790053 2.26806e-12)
(0.0591901 0.0769142 1.85969e-12)
(0.0579473 0.0749173 1.46479e-12)
(0.056667 0.0730117 1.09074e-12)
(0.0553541 0.0711946 7.22622e-13)
(0.0540134 0.0694628 3.87145e-13)
(0.052649 0.0678134 5.13637e-14)
(0.0512645 0.0662432 -2.47221e-13)
(0.0498632 0.0647493 -5.47372e-13)
(0.0484481 0.0633287 -8.04155e-13)
(0.0470218 0.0619785 -1.06514e-12)
(0.0455865 0.0606959 -1.28556e-12)
(0.0441443 0.0594782 -1.50903e-12)
(0.042697 0.0583228 -1.69449e-12)