/*--------------------------------*- C++ -*----------------------------------*\
| =========                 |                                                 |
| \\      /  F ield         | OpenFOAM: The Open Source CFD Toolbox           |
|  \\    /   O peration     | Version:  2306                                  |
|   \\  /    A nd           | Website:  www.openfoam.com                      |
|    \\/     M anipulation  |                                                 |
\*---------------------------------------------------------------------------*/
FoamFile
{
    version     2.0;
    format      ascii;
    arch        "LSB;label=32;scalar=64";
    class       volScalarField;
    location    "62.5";
    object      p;
}
// * * * * * * * * * * * * * * * * * * * * * * * * * * * * * * * * * * * * * //

dimensions      [1 -1 -2 0 0 0 0];

internalField   nonuniform List<scalar> 
14400
(
-0.0072222
-0.00724781
-0.00727818
-0.0073134
-0.00735359
-0.00739886
-0.00744937
-0.00750529
-0.0075668
-0.00763414
-0.00770752
-0.00778724
-0.00787357
-0.00796686
-0.00806746
-0.00817578
-0.00829226
-0.0084174
-0.00855173
-0.00869585
-0.00885043
-0.00901619
-0.00919395
-0.0093846
-0.00958916
-0.00980874
-0.0100446
-0.0102981
-0.0105708
-0.0108646
-0.0111813
-0.0115232
-0.0118929
-0.0122934
-0.0127279
-0.0132003
-0.0137149
-0.0142769
-0.0148923
-0.0155679
-0.0163117
-0.0171332
-0.0180435
-0.0190557
-0.0201849
-0.0214493
-0.0228698
-0.0244706
-0.0262795
-0.0283279
-0.0306502
-0.033281
-0.0362519
-0.039625
-0.0435953
-0.0481276
-0.0509161
-0.0461186
-0.0311009
-0.01327
-0.00795208
-0.00507117
-0.00468139
-0.00437313
-0.00385439
-0.00333191
-0.00286556
-0.00245691
-0.00210374
-0.00180435
-0.00155656
-0.00135798
-0.00120644
-0.00110012
-0.00103754
-0.00101703
-0.00103757
-0.00110018
-0.00120653
-0.00135809
-0.00676869
-0.00679205
-0.00681973
-0.00685182
-0.00688842
-0.00692963
-0.0069756
-0.00702649
-0.00708245
-0.00714369
-0.00721043
-0.00728289
-0.00736136
-0.00744611
-0.00753747
-0.00763581
-0.00774152
-0.00785502
-0.00797681
-0.0081074
-0.00824738
-0.00839739
-0.00855815
-0.00873045
-0.00891515
-0.00911322
-0.00932575
-0.00955394
-0.00979912
-0.0100628
-0.0103467
-0.0106526
-0.0109827
-0.0113393
-0.0117252
-0.0121435
-0.0125975
-0.0130912
-0.013629
-0.0142161
-0.014858
-0.0155613
-0.0163334
-0.0171822
-0.018117
-0.0191477
-0.0202846
-0.0215385
-0.0229194
-0.0244348
-0.0260869
-0.0278689
-0.0297729
-0.031786
-0.0336641
-0.0343819
-0.0325001
-0.0282201
-0.02361
-0.0201773
-0.0168404
-0.0113877
-0.00846105
-0.0067247
-0.00544913
-0.00447494
-0.00372327
-0.00313314
-0.00266396
-0.00228978
-0.00199346
-0.00176343
-0.00159187
-0.00147377
-0.00140614
-0.00138468
-0.00140617
-0.00147383
-0.00159195
-0.00176353
-0.00636284
-0.00638391
-0.00640883
-0.00643768
-0.00647055
-0.00650753
-0.00654875
-0.00659434
-0.00664444
-0.00669923
-0.00675887
-0.00682358
-0.00689359
-0.00696913
-0.00705047
-0.00713793
-0.00723182
-0.00733251
-0.00744038
-0.00755588
-0.00767948
-0.0078117
-0.00795311
-0.00810435
-0.00826611
-0.00843915
-0.00862432
-0.00882255
-0.00903485
-0.00926237
-0.00950635
-0.00976819
-0.0100494
-0.0103517
-0.0106771
-0.0110274
-0.0114052
-0.011813
-0.0122535
-0.01273
-0.0132459
-0.0138049
-0.014411
-0.0150686
-0.0157821
-0.016556
-0.0173944
-0.0183007
-0.0192766
-0.0203208
-0.0214267
-0.0225804
-0.0237616
-0.0249312
-0.0259601
-0.026535
-0.0261976
-0.0244998
-0.0213074
-0.0174418
-0.0140068
-0.0110262
-0.00901827
-0.00765272
-0.00662467
-0.00581019
-0.00514828
-0.00460255
-0.00415089
-0.00377911
-0.00347761
-0.00323972
-0.00306095
-0.00293912
-0.00287405
-0.00285574
-0.00287407
-0.00293917
-0.00306102
-0.00323981
-0.00592922
-0.00594754
-0.00596916
-0.00599414
-0.00602256
-0.00605449
-0.00609002
-0.00612927
-0.00617235
-0.00621938
-0.00627051
-0.00632589
-0.0063857
-0.00645011
-0.00651934
-0.00659361
-0.00667316
-0.00675826
-0.00684919
-0.00694626
-0.00704983
-0.00716025
-0.00727793
-0.00740329
-0.00753682
-0.00767903
-0.00783045
-0.0079917
-0.00816342
-0.0083463
-0.0085411
-0.00874863
-0.00896974
-0.00920536
-0.00945649
-0.00972415
-0.0100095
-0.0103135
-0.0106376
-0.0109827
-0.0113502
-0.0117412
-0.0121566
-0.0125974
-0.0130642
-0.0135571
-0.0140759
-0.0146193
-0.0151851
-0.0157692
-0.0163655
-0.0169653
-0.0175572
-0.0181288
-0.0186605
-0.0190942
-0.0192842
-0.0190401
-0.0182882
-0.0171496
-0.0159102
-0.0147064
-0.013561
-0.0124555
-0.0114458
-0.010568
-0.00981935
-0.00918549
-0.0086532
-0.00821177
-0.00785294
-0.00757065
-0.007361
-0.00722358
-0.00716071
-0.00714819
-0.00716073
-0.00722361
-0.00736105
-0.00757073
-0.00551328
-0.00552878
-0.00554703
-0.00556807
-0.00559195
-0.00561873
-0.00564849
-0.00568128
-0.00571721
-0.00575635
-0.0057988
-0.00584467
-0.00589409
-0.00594717
-0.00600405
-0.00606488
-0.00612982
-0.00619903
-0.0062727
-0.00635103
-0.00643421
-0.00652247
-0.00661604
-0.00671516
-0.00682009
-0.00693109
-0.00704846
-0.00717247
-0.00730343
-0.00744164
-0.0075874
-0.00774101
-0.00790277
-0.00807294
-0.00825177
-0.00843947
-0.00863617
-0.00884193
-0.00905673
-0.00928037
-0.00951249
-0.00975252
-0.00999958
-0.0102524
-0.0105094
-0.0107684
-0.0110264
-0.01128
-0.0115245
-0.0117543
-0.0119629
-0.0121423
-0.0122838
-0.0123782
-0.0124165
-0.0123887
-0.0122887
-0.0121247
-0.0119151
-0.0116659
-0.0113861
-0.0110846
-0.010771
-0.0104482
-0.0101289
-0.0098256
-0.00954461
-0.00928933
-0.00906232
-0.00886583
-0.00870202
-0.00857295
-0.0084809
-0.00843047
-0.00842684
-0.00843713
-0.00842686
-0.00843052
-0.00848098
-0.00857306
-0.00510416
-0.00511679
-0.00513162
-0.00514866
-0.00516796
-0.00518955
-0.00521347
-0.00523977
-0.0052685
-0.00529971
-0.00533345
-0.0053698
-0.00540881
-0.00545056
-0.00549511
-0.00554255
-0.00559296
-0.00564642
-0.00570302
-0.00576284
-0.00582597
-0.0058925
-0.00596252
-0.00603611
-0.00611335
-0.00619432
-0.00627907
-0.00636766
-0.00646011
-0.00655643
-0.0066566
-0.00676057
-0.00686822
-0.00697939
-0.00709386
-0.00721131
-0.00733134
-0.0074534
-0.00757684
-0.0077008
-0.00782427
-0.00794598
-0.00806443
-0.00817782
-0.00828403
-0.00838062
-0.00846474
-0.00853321
-0.00858248
-0.00860872
-0.00860788
-0.00857586
-0.00850875
-0.0084031
-0.00825612
-0.00806627
-0.00783553
-0.00757306
-0.00729565
-0.00702176
-0.00676521
-0.00653182
-0.0063228
-0.0061357
-0.00596835
-0.00581938
-0.00568775
-0.00557283
-0.00547448
-0.00539298
-0.00532897
-0.00528324
-0.00525691
-0.00525316
-0.00527529
-0.00529299
-0.00527533
-0.00525325
-0.00525705
-0.00528344
-0.00471176
-0.00472163
-0.00473316
-0.00474637
-0.00476127
-0.00477789
-0.00479623
-0.00481632
-0.00483818
-0.00486184
-0.00488731
-0.00491461
-0.00494377
-0.00497481
-0.00500775
-0.00504261
-0.0050794
-0.00511814
-0.00515882
-0.00520147
-0.00524606
-0.00529259
-0.00534103
-0.00539134
-0.00544348
-0.00549737
-0.00555291
-0.00560998
-0.00566843
-0.00572808
-0.0057887
-0.00584999
-0.00591162
-0.00597319
-0.00603422
-0.00609412
-0.00615224
-0.00620779
-0.00625987
-0.00630743
-0.00634928
-0.00638406
-0.00641024
-0.00642613
-0.00642986
-0.0064194
-0.0063926
-0.00634722
-0.00628103
-0.00619189
-0.00607788
-0.00593753
-0.00577001
-0.00557538
-0.00535487
-0.00511107
-0.00484827
-0.00457268
-0.00429231
-0.00401596
-0.00375172
-0.00350554
-0.00328106
-0.00307977
-0.00290194
-0.00274702
-0.00261393
-0.00250143
-0.00240834
-0.00233374
-0.00227694
-0.00223745
-0.00221512
-0.00221149
-0.00222815
-0.00224157
-0.00222822
-0.00221163
-0.00221535
-0.00223775
-0.00433569
-0.00434295
-0.00435138
-0.00436098
-0.00437176
-0.00438371
-0.00439684
-0.00441115
-0.00442662
-0.00444326
-0.00446106
-0.00448001
-0.00450009
-0.00452129
-0.00454359
-0.00456696
-0.00459137
-0.00461678
-0.00464313
-0.00467036
-0.00469842
-0.0047272
-0.00475662
-0.00478655
-0.00481686
-0.00484738
-0.00487793
-0.00490829
-0.00493821
-0.0049674
-0.00499552
-0.0050222
-0.00504699
-0.00506942
-0.00508891
-0.00510483
-0.00511648
-0.00512307
-0.00512372
-0.00511746
-0.00510324
-0.0050799
-0.00504623
-0.00500093
-0.00494264
-0.00487
-0.00478166
-0.00467634
-0.00455288
-0.00441039
-0.00424824
-0.0040663
-0.00386498
-0.00364539
-0.00340946
-0.00316002
-0.00290083
-0.00263654
-0.00237239
-0.00211373
-0.00186546
-0.0016316
-0.00141508
-0.00121774
-0.00104058
-0.000883852
-0.00074734
-0.000630494
-0.00053263
-0.000453046
-0.000391095
-0.000346162
-0.000317846
-0.00030689
-0.00031407
-0.000322158
-0.000314165
-0.000307082
-0.000318135
-0.00034655
-0.00397869
-0.00398356
-0.00398916
-0.00399547
-0.0040025
-0.00401022
-0.00401862
-0.00402768
-0.00403739
-0.00404771
-0.00405863
-0.00407009
-0.00408208
-0.00409453
-0.00410741
-0.00412064
-0.00413417
-0.00414792
-0.00416179
-0.00417569
-0.00418952
-0.00420313
-0.00421638
-0.00422911
-0.00424114
-0.00425226
-0.00426224
-0.00427081
-0.00427768
-0.00428253
-0.004285
-0.00428467
-0.00428112
-0.00427385
-0.00426232
-0.00424594
-0.00422409
-0.00419606
-0.00416113
-0.0041185
-0.00406737
-0.00400687
-0.00393613
-0.00385427
-0.00376044
-0.00365384
-0.00353373
-0.00339953
-0.00325082
-0.00308741
-0.00290941
-0.00271728
-0.00251193
-0.0022947
-0.00206746
-0.00183259
-0.00159291
-0.00135168
-0.00111235
-0.000878402
-0.000653078
-0.000439204
-0.000239057
-5.4329e-05
0.00011384
0.00026479
0.000398252
0.000514247
0.000612987
0.000694793
0.00076004
0.000809153
0.00084247
0.000859564
0.000860029
0.000856141
0.000859921
0.000859346
0.000842143
0.000808719
-0.00364164
-0.00364437
-0.00364744
-0.00365083
-0.00365452
-0.00365849
-0.00366271
-0.00366715
-0.00367179
-0.00367657
-0.00368147
-0.00368642
-0.00369137
-0.00369626
-0.00370102
-0.00370558
-0.00370983
-0.00371369
-0.00371705
-0.00371978
-0.00372176
-0.00372283
-0.00372283
-0.00372157
-0.00371887
-0.00371449
-0.0037082
-0.00369973
-0.00368879
-0.00367507
-0.00365821
-0.00363785
-0.00361359
-0.003585
-0.0035516
-0.00351292
-0.00346843
-0.00341759
-0.00335983
-0.00329459
-0.00322127
-0.00313929
-0.0030481
-0.00294716
-0.002836
-0.00271421
-0.00258148
-0.00243765
-0.00228271
-0.00211683
-0.00194044
-0.0017542
-0.00155906
-0.00135629
-0.00114744
-0.000934364
-0.000719157
-0.000504104
-0.000291588
-8.39828e-05
0.000116459
0.000307706
0.000488015
0.000655967
0.000810475
0.000950757
0.0010763
0.00118683
0.00128223
0.0013625
0.00142777
0.00147822
0.00151403
0.00153487
0.00154048
0.0015395
0.00154037
0.00153465
0.00151369
0.00147778
-0.00332539
-0.00332626
-0.00332713
-0.00332798
-0.00332878
-0.00332951
-0.00333013
-0.00333061
-0.0033309
-0.00333096
-0.00333074
-0.00333017
-0.00332919
-0.00332773
-0.00332571
-0.00332304
-0.00331962
-0.00331536
-0.00331012
-0.00330379
-0.00329622
-0.00328726
-0.00327675
-0.00326451
-0.00325033
-0.00323401
-0.00321533
-0.00319403
-0.00316985
-0.0031425
-0.0031117
-0.00307711
-0.0030384
-0.00299522
-0.0029472
-0.00289394
-0.00283507
-0.00277018
-0.00269887
-0.00262074
-0.00253542
-0.00244254
-0.00234179
-0.00223288
-0.00211559
-0.00198979
-0.00185542
-0.00171256
-0.0015614
-0.00140228
-0.00123573
-0.00106243
-0.000883263
-0.000699297
-0.000511783
-0.000322135
-0.000131906
5.72558e-05
0.000243658
0.000425616
0.000601515
0.000769862
0.00092932
0.00107874
0.00121717
0.00134386
0.00145821
0.00155983
0.00164842
0.00172382
0.00178595
0.00183483
0.0018705
0.00189267
0.00190112
0.00190192
0.00190101
0.00189246
0.00187018
0.0018344
-0.00303023
-0.00302953
-0.00302854
-0.00302724
-0.00302561
-0.00302361
-0.00302121
-0.00301837
-0.00301505
-0.00301118
-0.00300673
-0.00300161
-0.00299577
-0.00298913
-0.00298161
-0.00297312
-0.00296356
-0.00295282
-0.00294079
-0.00292735
-0.00291236
-0.00289567
-0.00287714
-0.00285659
-0.00283385
-0.00280873
-0.00278102
-0.00275051
-0.00271697
-0.00268018
-0.00263987
-0.0025958
-0.00254769
-0.00249527
-0.00243826
-0.00237638
-0.00230934
-0.00223689
-0.00215874
-0.00207465
-0.00198439
-0.00188777
-0.00178463
-0.00167486
-0.00155841
-0.00143529
-0.00130559
-0.00116951
-0.00102733
-0.000879454
-0.000726386
-0.000568766
-0.000407352
-0.000243023
-7.67691e-05
9.03216e-05
0.000257083
0.000422298
0.000584723
0.000743124
0.000896306
0.00104315
0.00118261
0.00131378
0.00143584
0.00154813
0.00165007
0.00174124
0.00182127
0.00188993
0.00194703
0.0019925
0.00202627
0.00204808
0.00205773
0.00205951
0.00205763
0.00204787
0.00202597
0.0019921
-0.00275613
-0.00275411
-0.00275159
-0.00274852
-0.0027449
-0.00274067
-0.00273581
-0.00273028
-0.00272403
-0.002717
-0.00270915
-0.00270041
-0.00269071
-0.00267998
-0.00266814
-0.00265511
-0.00264079
-0.00262509
-0.00260789
-0.00258908
-0.00256854
-0.00254614
-0.00252175
-0.00249521
-0.00246637
-0.00243507
-0.00240114
-0.0023644
-0.00232467
-0.00228176
-0.00223547
-0.00218561
-0.00213196
-0.00207434
-0.00201254
-0.00194637
-0.00187563
-0.00180015
-0.00171978
-0.00163436
-0.00154379
-0.00144799
-0.00134689
-0.00124051
-0.00112889
-0.00101213
-0.000890393
-0.000763927
-0.000633038
-0.000498119
-0.000359643
-0.000218166
-7.43255e-05
7.1163e-05
0.000217515
0.000363886
0.000509385
0.000653091
0.000794069
0.000931389
0.00106415
0.00119148
0.00131259
0.00142672
0.00153322
0.00163151
0.00172108
0.00180151
0.00187246
0.00193364
0.00198486
0.00202597
0.00205687
0.00207731
0.00208713
0.00208937
0.00208704
0.00207713
0.0020566
0.00202562
-0.00250269
-0.00249963
-0.00249588
-0.00249141
-0.00248619
-0.0024802
-0.0024734
-0.00246575
-0.00245721
-0.00244772
-0.00243724
-0.0024257
-0.00241305
-0.00239922
-0.00238413
-0.0023677
-0.00234985
-0.0023305
-0.00230954
-0.00228688
-0.0022624
-0.00223601
-0.00220757
-0.00217697
-0.00214408
-0.00210877
-0.00207089
-0.00203032
-0.00198689
-0.00194048
-0.00189092
-0.00183809
-0.00178182
-0.00172198
-0.00165844
-0.00159106
-0.00151974
-0.00144437
-0.00136487
-0.00128117
-0.00119324
-0.00110107
-0.00100467
-0.000904106
-0.000799485
-0.000690951
-0.000578701
-0.000462983
-0.000344102
-0.000222419
-9.83528e-05
2.76202e-05
0.00015497
0.000283116
0.000411432
0.000539255
0.000665892
0.000790632
0.000912757
0.00103155
0.00114632
0.00125639
0.00136112
0.00145993
0.00155226
0.00163763
0.00171561
0.00178583
0.00184796
0.00190173
0.00194694
0.00198344
0.00201109
0.00202969
0.00203909
0.00204147
0.00203901
0.00202954
0.00201086
0.00198313
-0.0022693
-0.00226543
-0.00226072
-0.00225517
-0.00224874
-0.0022414
-0.00223313
-0.00222388
-0.00221362
-0.0022023
-0.00218987
-0.00217628
-0.00216147
-0.00214539
-0.00212796
-0.00210913
-0.00208881
-0.00206693
-0.00204341
-0.00201816
-0.0019911
-0.00196212
-0.00193114
-0.00189806
-0.00186276
-0.00182515
-0.00178512
-0.00174256
-0.00169737
-0.00164944
-0.00159865
-0.00154492
-0.00148814
-0.00142822
-0.00136507
-0.00129863
-0.00122883
-0.00115562
-0.00107898
-0.000998885
-0.000915356
-0.000828426
-0.000738161
-0.000644654
-0.000548035
-0.000448466
-0.00034615
-0.000241328
-0.000134282
-2.53335e-05
8.51531e-05
0.000196776
0.000309095
0.000421636
0.000533897
0.000645351
0.00075545
0.000863639
0.000969355
0.00107204
0.00117115
0.00126614
0.00135653
0.00144182
0.00152158
0.0015954
0.00166293
0.00172382
0.00177781
0.00182466
0.00186417
0.00189618
0.00192058
0.00193719
0.00194587
0.00194821
0.0019458
0.00193706
0.00192039
0.00189593
-0.00205512
-0.00205064
-0.00204524
-0.00203889
-0.00203157
-0.00202326
-0.00201393
-0.00200353
-0.00199205
-0.00197944
-0.00196565
-0.00195064
-0.00193436
-0.00191677
-0.00189779
-0.00187739
-0.00185548
-0.00183202
-0.00180693
-0.00178013
-0.00175157
-0.00172116
-0.00168883
-0.0016545
-0.0016181
-0.00157953
-0.00153872
-0.0014956
-0.00145008
-0.00140209
-0.00135156
-0.00129842
-0.00124262
-0.00118409
-0.0011228
-0.0010587
-0.000991779
-0.000922022
-0.000849436
-0.000774043
-0.000695887
-0.000615031
-0.000531562
-0.000445591
-0.000357255
-0.000266721
-0.000174182
-7.98623e-05
1.59857e-05
0.000113079
0.000211105
0.000309725
0.000408575
0.000507265
0.000605389
0.000702523
0.000798231
0.000892071
0.000983597
0.00107237
0.00115795
0.00123991
0.00131786
0.00139141
0.0014602
0.00152389
0.00158219
0.00163482
0.00168154
0.00172214
0.00175645
0.00178433
0.00180568
0.00182033
0.00182818
0.00183039
0.00182812
0.00182022
0.00180552
0.00178413
-0.00185916
-0.00185426
-0.00184838
-0.00184149
-0.00183357
-0.0018246
-0.00181456
-0.00180342
-0.00179114
-0.0017777
-0.00176305
-0.00174716
-0.00172999
-0.00171149
-0.00169162
-0.00167032
-0.00164756
-0.00162327
-0.00159741
-0.00156991
-0.00154072
-0.00150978
-0.00147704
-0.00144243
-0.00140589
-0.00136737
-0.00132682
-0.00128417
-0.00123937
-0.00119238
-0.00114316
-0.00109165
-0.00103783
-0.000981683
-0.000923177
-0.000862312
-0.00079909
-0.000733527
-0.000665653
-0.000595513
-0.000523166
-0.000448691
-0.000372185
-0.000293764
-0.000213565
-0.000131746
-4.84885e-05
3.60066e-05
0.000121515
0.000207791
0.000294568
0.000381561
0.000468466
0.000554964
0.000640721
0.000725395
0.000808635
0.000890083
0.000969385
0.00104619
0.00112014
0.0011909
0.00125815
0.00132158
0.00138089
0.0014358
0.00148608
0.00153149
0.00157184
0.00160693
0.00163664
0.00166082
0.0016794
0.00169223
0.00169923
0.00170126
0.00169919
0.00169215
0.00167928
0.00166067
-0.00168036
-0.0016752
-0.00166902
-0.0016618
-0.00165352
-0.00164417
-0.00163372
-0.00162215
-0.00160943
-0.00159554
-0.00158045
-0.00156412
-0.00154653
-0.00152763
-0.00150738
-0.00148576
-0.00146272
-0.00143821
-0.0014122
-0.00138465
-0.00135551
-0.00132474
-0.00129229
-0.00125812
-0.0012222
-0.00118448
-0.00114492
-0.00110349
-0.00106016
-0.00101489
-0.000967673
-0.000918481
-0.000867305
-0.000814139
-0.000758986
-0.000701859
-0.000642778
-0.000581777
-0.000518899
-0.000454201
-0.000387752
-0.000319637
-0.000249955
-0.00017882
-0.000106364
-3.27327e-05
4.19095e-05
0.000117383
0.000193491
0.000270021
0.000346747
0.000423428
0.000499811
0.00057563
0.000650614
0.00072448
0.000796945
0.000867718
0.000936512
0.00100304
0.00106703
0.00112819
0.00118627
0.00124101
0.00129218
0.00133956
0.00138293
0.00142211
0.00145692
0.00148724
0.00151292
0.00153386
0.00154998
0.00156118
0.00156738
0.00156922
0.00156735
0.00156112
0.0015499
0.00153375
-0.0015176
-0.0015123
-0.00150597
-0.0014986
-0.00149016
-0.00148064
-0.00147003
-0.00145831
-0.00144545
-0.00143143
-0.00141622
-0.00139981
-0.00138217
-0.00136326
-0.00134307
-0.00132155
-0.00129868
-0.00127443
-0.00124877
-0.00122166
-0.00119307
-0.00116298
-0.00113136
-0.00109817
-0.00106338
-0.00102698
-0.000988944
-0.000949245
-0.000907871
-0.000864809
-0.000820052
-0.000773596
-0.000725444
-0.000675608
-0.000624102
-0.000570952
-0.000516191
-0.000459862
-0.000402015
-0.000342714
-0.000282032
-0.000220053
-0.000156876
-9.26075e-05
-2.73704e-05
3.87016e-05
0.000105462
0.000172751
0.000240398
0.000308221
0.000376026
0.00044361
0.000510761
0.000577258
0.000642876
0.000707384
0.000770548
0.000832133
0.000891903
0.000949627
0.00100508
0.00105803
0.00110827
0.00115559
0.00119979
0.00124071
0.00127815
0.00131198
0.00134205
0.00136824
0.00139044
0.00140857
0.00142255
0.0014323
0.00143776
0.00143941
0.00143774
0.00143227
0.0014225
0.0014085
-0.00136971
-0.00136439
-0.00135805
-0.00135066
-0.00134223
-0.00133273
-0.00132215
-0.00131049
-0.00129771
-0.00128381
-0.00126876
-0.00125255
-0.00123516
-0.00121655
-0.00119673
-0.00117565
-0.0011533
-0.00112966
-0.0011047
-0.0010784
-0.00105075
-0.00102172
-0.000991288
-0.000959443
-0.000926168
-0.000891448
-0.000855274
-0.000817637
-0.000778532
-0.00073796
-0.000695923
-0.000652431
-0.000607497
-0.00056114
-0.000513387
-0.000464269
-0.000413828
-0.000362109
-0.000309169
-0.000255073
-0.000199893
-0.000143711
-8.66193e-05
-2.87196e-05
2.98772e-05
8.90505e-05
0.00014867
0.000208596
0.00026868
0.000328764
0.000388685
0.00044827
0.00050734
0.000565712
0.000623198
0.000679607
0.000734747
0.000788423
0.000840443
0.000890618
0.000938759
0.000984686
0.00102822
0.0010692
0.00110746
0.00114285
0.00117524
0.00120449
0.00123049
0.00125314
0.00127236
0.00128806
0.00130019
0.00130867
0.00131347
0.00131494
0.00131346
0.00130866
0.00130016
0.00128803
-0.00123558
-0.00123032
-0.00122406
-0.00121678
-0.00120847
-0.00119913
-0.00118875
-0.00117731
-0.0011648
-0.00115121
-0.00113652
-0.00112073
-0.0011038
-0.00108574
-0.00106652
-0.00104613
-0.00102456
-0.00100178
-0.000977793
-0.000952573
-0.000926112
-0.000898397
-0.000869418
-0.000839166
-0.000807636
-0.000774822
-0.000740723
-0.00070534
-0.000668676
-0.000630741
-0.000591545
-0.000551106
-0.000509443
-0.000466583
-0.000422557
-0.000377402
-0.000331161
-0.000283885
-0.000235629
-0.000186456
-0.000136438
-8.56526e-05
-3.41845e-05
1.7873e-05
7.04195e-05
0.000123347
0.000176541
0.000229878
0.00028323
0.000336462
0.000389433
0.000441997
0.000494004
0.000545299
0.000595726
0.000645126
0.000693338
0.000740204
0.000785564
0.000829261
0.000871143
0.000911059
0.000948865
0.000984424
0.0010176
0.00104828
0.00107634
0.00110169
0.00112421
0.00114383
0.00116049
0.0011741
0.00118463
0.00119203
0.00119624
0.00119755
0.00119624
0.00119203
0.00118464
0.00117411
-0.00111409
-0.00110896
-0.00110286
-0.00109577
-0.00108769
-0.00107862
-0.00106855
-0.00105747
-0.00104536
-0.00103222
-0.00101805
-0.00100283
-0.000986542
-0.000969188
-0.000950755
-0.000931233
-0.000910611
-0.000888883
-0.000866038
-0.00084207
-0.000816973
-0.000790742
-0.000763374
-0.000734866
-0.000705218
-0.000674435
-0.000642519
-0.000609479
-0.000575325
-0.000540072
-0.000503736
-0.000466339
-0.000427907
-0.000388468
-0.000348058
-0.000306715
-0.000264484
-0.000221415
-0.000177562
-0.000132987
-8.77564e-05
-4.19423e-05
4.37672e-06
5.11162e-05
9.8186e-05
0.00014549
0.000192928
0.000240391
0.00028777
0.000334946
0.000381801
0.000428209
0.000474044
0.000519176
0.000563472
0.000606801
0.000649028
0.000690022
0.000729651
0.000767784
0.000804296
0.000839062
0.000871964
0.000902888
0.000931726
0.000958376
0.000982744
0.00100474
0.0010243
0.00104133
0.00105579
0.00106762
0.00107678
0.00108323
0.00108692
0.00108808
0.00108693
0.00108324
0.00107681
0.00106766
-0.00100418
-0.000999232
-0.000993344
-0.000986517
-0.000978745
-0.000970024
-0.000960349
-0.000949712
-0.00093811
-0.000925535
-0.000911981
-0.000897442
-0.000881913
-0.000865387
-0.000847858
-0.000829321
-0.000809772
-0.000789207
-0.000767622
-0.000745015
-0.000721386
-0.000696734
-0.000671062
-0.000644373
-0.000616672
-0.000587966
-0.000558266
-0.000527584
-0.000495935
-0.000463336
-0.000429808
-0.000395377
-0.000360069
-0.000323917
-0.000286956
-0.000249225
-0.000210769
-0.000171636
-0.000131879
-9.15542e-05
-5.07249e-05
-9.45738e-06
3.21769e-05
7.41021e-05
0.000116238
0.000158498
0.000200795
0.000243036
0.000285122
0.000326954
0.00036843
0.000409442
0.000449882
0.000489642
0.00052861
0.000566675
0.000603725
0.000639649
0.000674338
0.000707684
0.000739581
0.000769927
0.000798624
0.000825578
0.000850699
0.000873902
0.000895111
0.000914253
0.000931263
0.000946083
0.000958664
0.000968963
0.000976945
0.000982573
0.000985819
0.000986849
0.000985834
0.000982602
0.00097699
0.000969024
-0.00090485
-0.000900113
-0.000894486
-0.000887966
-0.000880549
-0.000872235
-0.000863017
-0.000852895
-0.000841864
-0.00082992
-0.000817061
-0.000803283
-0.000788584
-0.00077296
-0.00075641
-0.000738932
-0.000720526
-0.000701191
-0.000680927
-0.000659738
-0.000637625
-0.000614593
-0.000590648
-0.000565796
-0.000540048
-0.000513414
-0.000485908
-0.000457544
-0.00042834
-0.000398318
-0.000367499
-0.000335911
-0.000303581
-0.000270543
-0.000236832
-0.000202486
-0.000167548
-0.000132065
-9.60857e-05
-5.96637e-05
-2.28563e-05
1.42757e-05
5.16677e-05
8.92515e-05
0.000126956
0.000164705
0.000202421
0.000240022
0.000277425
0.000314544
0.000351288
0.000387568
0.000423292
0.000458367
0.000492698
0.000526192
0.000558755
0.000590294
0.000620718
0.000649936
0.00067786
0.000704406
0.00072949
0.000753036
0.000774968
0.000795218
0.000813719
0.000830412
0.000845244
0.000858167
0.000869138
0.000878123
0.000885092
0.000890015
0.000892869
0.000893783
0.00089289
0.000890056
0.000885153
0.000878205
-0.000815146
-0.000810649
-0.00080531
-0.000799128
-0.000792102
-0.000784231
-0.000775512
-0.000765945
-0.000755528
-0.00074426
-0.00073214
-0.000719167
-0.000705341
-0.000690662
-0.00067513
-0.000658748
-0.000641517
-0.000623439
-0.00060452
-0.000584762
-0.000564174
-0.00054276
-0.000520531
-0.000497496
-0.000473667
-0.000449058
-0.000423683
-0.000397561
-0.00037071
-0.000343152
-0.000314912
-0.000286016
-0.000256494
-0.000226376
-0.000195698
-0.000164498
-0.000132815
-0.000100693
-6.81788e-05
-3.53207e-05
-2.17141e-06
3.12138e-05
6.47769e-05
9.8457e-05
0.00013219
0.00016591
0.000199549
0.000233035
0.000266295
0.000299255
0.000331838
0.000363966
0.000395561
0.000426544
0.000456835
0.000486354
0.000515022
0.000542761
0.000569494
0.000595146
0.000619642
0.000642911
0.000664885
0.000685499
0.00070469
0.000722401
0.000738577
0.000753169
0.000766131
0.000777424
0.000787013
0.000794868
0.000800966
0.000805281
0.000807794
0.000808605
0.000807819
0.00080533
0.000801041
0.000794969
-0.00073419
-0.000729947
-0.000724914
-0.000719089
-0.000712474
-0.000705068
-0.00069687
-0.000687881
-0.000678101
-0.000667531
-0.000656171
-0.000644023
-0.000631088
-0.000617369
-0.000602869
-0.00058759
-0.000571537
-0.000554716
-0.000537132
-0.000518792
-0.000499705
-0.000479879
-0.000459325
-0.000438055
-0.000416083
-0.000393423
-0.000370092
-0.00034611
-0.000321495
-0.00029627
-0.000270459
-0.00024409
-0.000217191
-0.000189791
-0.000161926
-0.000133629
-0.00010494
-7.58982e-05
-4.65466e-05
-1.69303e-05
1.29031e-05
4.29037e-05
7.30193e-05
0.000103196
0.000133376
0.000163503
0.000193514
0.00022335
0.000252945
0.000282235
0.000311155
0.000339637
0.000367614
0.000395018
0.000421782
0.000447838
0.000473119
0.000497559
0.000521092
0.000543654
0.000565185
0.000585624
0.000604913
0.000622999
0.000639828
0.000655352
0.000669526
0.000682309
0.000693663
0.000703553
0.000711953
0.000718835
0.000724182
0.00072797
0.000730186
0.000730907
0.000730215
0.000728027
0.000724267
0.00071895
-0.000661166
-0.000657185
-0.000652465
-0.000647008
-0.000640812
-0.00063388
-0.000626212
-0.000617809
-0.000608673
-0.000598805
-0.000588209
-0.000576887
-0.000564842
-0.000552078
-0.000538599
-0.000524411
-0.000509518
-0.000493929
-0.000477651
-0.000460691
-0.000443061
-0.000424769
-0.000405829
-0.000386252
-0.000366055
-0.000345252
-0.00032386
-0.0003019
-0.000279391
-0.000256355
-0.000232816
-0.000208801
-0.000184336
-0.000159451
-0.000134178
-0.000108549
-8.26012e-05
-5.63705e-05
-2.98964e-05
-3.22024e-06
2.36151e-05
5.05645e-05
7.75815e-05
0.000104617
0.000131622
0.000158545
0.000185331
0.000211928
0.00023828
0.000264331
0.000290023
0.000315299
0.000340102
0.000364372
0.000388053
0.000411086
0.000433415
0.000454982
0.000475734
0.000495616
0.000514576
0.000532563
0.000549529
0.000565428
0.000580216
0.000593853
0.000606299
0.000617521
0.000627487
0.000636169
0.000643541
0.000649585
0.000654282
0.000657615
0.000659572
0.000660213
0.000659603
0.000657677
0.000654376
0.00064971
-0.000595322
-0.000591605
-0.000587201
-0.00058211
-0.000576334
-0.000569875
-0.000562734
-0.000554913
-0.000546416
-0.000537244
-0.000527401
-0.000516892
-0.00050572
-0.00049389
-0.000481409
-0.000468282
-0.000454516
-0.000440119
-0.0004251
-0.000409468
-0.000393234
-0.000376409
-0.000359006
-0.000341038
-0.000322521
-0.000303471
-0.000283904
-0.000263841
-0.0002433
-0.000222304
-0.000200876
-0.000179041
-0.000156825
-0.000134255
-0.000111361
-8.81745e-05
-6.47278e-05
-4.1055e-05
-1.7192e-05
6.82371e-06
3.09533e-05
5.51565e-05
7.93914e-05
0.000103615
0.000127783
0.000151849
0.000175768
0.000199492
0.000222972
0.00024616
0.000269006
0.00029146
0.000313473
0.000334994
0.000355974
0.000376364
0.000396114
0.000415178
0.000433507
0.000451057
0.000467782
0.000483641
0.000498591
0.000512595
0.000525615
0.000537617
0.000548568
0.00055844
0.000567205
0.000574841
0.000581326
0.000586643
0.000590777
0.000593715
0.000595446
0.000596017
0.000595479
0.000593782
0.000590877
0.000586777
-0.00053597
-0.000532514
-0.000528421
-0.000523692
-0.000518329
-0.000512335
-0.00050571
-0.000498459
-0.000490585
-0.000482091
-0.000472981
-0.000463261
-0.000452935
-0.000442008
-0.000430489
-0.000418382
-0.000405697
-0.000392442
-0.000378625
-0.000364258
-0.00034935
-0.000333915
-0.000317964
-0.000301513
-0.000284575
-0.000267167
-0.000249306
-0.00023101
-0.0002123
-0.000193195
-0.000173719
-0.000153894
-0.000133745
-0.000113298
-9.25816e-05
-7.1623e-05
-5.04527e-05
-2.91021e-05
-7.60375e-06
1.40085e-05
3.56997e-05
5.74335e-05
7.91727e-05
0.000100879
0.000122513
0.000144034
0.000165402
0.000186575
0.00020751
0.000228166
0.000248499
0.000268466
0.000288023
0.000307129
0.00032574
0.000343813
0.000361308
0.000378182
0.000394397
0.000409912
0.000424691
0.000438697
0.000451894
0.000464251
0.000475735
0.000486318
0.000495972
0.000504672
0.000512397
0.000519125
0.00052484
0.000529527
0.000533173
0.000535767
0.0005373
0.00053781
0.000537335
0.000535837
0.000533278
0.000529666
-0.000482482
-0.00047928
-0.00047549
-0.000471113
-0.000466151
-0.000460606
-0.000454482
-0.000447782
-0.000440509
-0.000432668
-0.000424264
-0.000415301
-0.000405786
-0.000395724
-0.000385122
-0.000373988
-0.000362331
-0.000350158
-0.00033748
-0.000324307
-0.000310651
-0.000296522
-0.000281935
-0.000266902
-0.000251439
-0.000235562
-0.000219286
-0.00020263
-0.000185613
-0.000168255
-0.000150575
-0.000132597
-0.000114344
-9.58387e-05
-7.71077e-05
-5.81772e-05
-3.90745e-05
-1.98282e-05
-4.67868e-07
1.89759e-05
3.84715e-05
5.79866e-05
7.74878e-05
9.69411e-05
0.000116311
0.000135564
0.000154661
0.000173568
0.000192247
0.000210661
0.000228772
0.000246544
0.000263938
0.000280917
0.000297445
0.000313486
0.000329002
0.00034396
0.000358324
0.000372062
0.00038514
0.000397529
0.000409198
0.000420119
0.000430266
0.000439614
0.000448139
0.000455821
0.000462641
0.00046858
0.000473626
0.000477765
0.000480986
0.00048328
0.00048464
0.000485095
0.000484676
0.000483352
0.000481093
0.000477908
-0.000434283
-0.000431328
-0.000427829
-0.00042379
-0.000419213
-0.0004141
-0.000408456
-0.000402283
-0.000395585
-0.000388368
-0.000380636
-0.000372394
-0.000363649
-0.000354407
-0.000344675
-0.000334461
-0.000323774
-0.000312622
-0.000301015
-0.000288963
-0.000276478
-0.000263571
-0.000250256
-0.000236545
-0.000222453
-0.000207995
-0.000193187
-0.000178045
-0.000162589
-0.000146836
-0.000130806
-0.00011452