/*--------------------------------*- C++ -*----------------------------------*\
| =========                 |                                                 |
| \\      /  F ield         | OpenFOAM: The Open Source CFD Toolbox           |
|  \\    /   O peration     | Version:  2306                                  |
|   \\  /    A nd           | Website:  www.openfoam.com                      |
|    \\/     M anipulation  |                                                 |
\*---------------------------------------------------------------------------*/
FoamFile
{
    version     2.0;
    format      ascii;
    arch        "LSB;label=32;scalar=64";
    class       surfaceScalarField;
    location    "62.5";
    object      phi;
}
// * * * * * * * * * * * * * * * * * * * * * * * * * * * * * * * * * * * * * //

dimensions      [0 3 -1 0 0 0 0];

oriented        oriented;

internalField   nonuniform List<scalar> 
37980
(
-0.063487
0.0116113
6.45498e-11
-0.0751451
0.0116582
6.23882e-11
-0.0868576
0.0117125
4.8841e-11
-0.0986321
0.0117745
3.14247e-11
-0.110476
0.0118443
3.3446e-11
-0.122399
0.0119222
3.70889e-11
-0.134407
0.0120083
4.25771e-11
-0.14651
0.0121029
4.43581e-11
-0.158716
0.0122063
4.84268e-11
-0.171035
0.0123186
4.93482e-11
-0.183475
0.0124402
5.33604e-11
-0.196046
0.0125713
5.4095e-11
-0.208758
0.0127122
5.83572e-11
-0.221622
0.0128632
5.90965e-11
-0.234646
0.0130246
6.37427e-11
-0.247843
0.0131968
6.45992e-11
-0.261223
0.0133801
6.96979e-11
-0.274798
0.0135747
7.07195e-11
-0.288579
0.0137812
7.62826e-11
-0.302579
0.0139997
7.74596e-11
-0.316809
0.0142307
8.34557e-11
-0.331284
0.0144744
8.47228e-11
-0.346015
0.0147312
9.10812e-11
-0.361016
0.0150013
9.23027e-11
-0.376301
0.015285
9.89046e-11
-0.391884
0.0155823
9.98414e-11
-0.407777
0.0158934
1.06494e-10
-0.423995
0.0162182
1.06749e-10
-0.440552
0.0165564
1.13144e-10
-0.457459
0.0169077
1.12107e-10
-0.474731
0.0172715
1.17817e-10
-0.492378
0.0176468
1.14724e-10
-0.51041
0.0180326
1.19428e-10
-0.528838
0.0184273
1.13816e-10
-0.547667
0.0188292
1.18075e-10
-0.566903
0.0192363
1.10907e-10
-0.586549
0.0196463
1.175e-10
-0.606607
0.0200575
1.1221e-10
-0.627075
0.0204686
1.26121e-10
-0.647956
0.0208801
1.25922e-10
-0.669252
0.0212963
1.47679e-10
-0.690979
0.0217274
1.43021e-10
-0.713174
0.0221951
1.5142e-10
-0.735915
0.0227408
1.01691e-10
-0.759355
0.0234393
4.33789e-11
-0.783776
0.0244213
-1.07617e-10
-0.809686
0.0259097
-2.65519e-10
-0.837961
0.028275
-4.7738e-10
-0.870078
0.0321176
-5.97275e-10
-0.908461
0.0383824
-5.65425e-10
-0.956973
0.0485123
-2.26262e-10
-1.02162
0.0646455
5.98799e-10
-1.11147
0.089855
1.89918e-09
-1.23979
0.128319
3.64244e-09
-1.42488
0.185091
5.01439e-09
-1.69076
0.265876
5.24611e-09
-2.06722
0.376462
3.13926e-09
-2.58896
0.521735
1.81483e-09
-3.31503
0.726068
9.23245e-09
-4.30802
0.992996
6.73313e-08
-5.76968
1.46166
1.92381e-08
-4.41649
3.37152
1.44384e-07
-3.71576
4.02397
-4.3483e-09
-3.24199
4.25094
-5.82425e-09
-2.8567
4.33942
-1.33539e-08
-2.51293
4.38093
-1.90904e-08
-2.19396
4.40574
-2.73435e-08
-1.89349
4.42423
-2.77571e-08
-1.60853
4.43975
-2.69919e-08
-1.33702
4.45319
-2.29347e-08
-1.07708
4.46476
-1.95747e-08
-0.826855
4.47448
-1.55839e-08
-0.584495
4.48234
-1.30365e-08
-0.348091
4.4883
-1.0882e-08
-0.115567
4.49218
-9.41239e-09
0.115562
4.49358
-6.27656e-09
0.348086
4.49218
-1.25684e-08
0.584489
4.4883
-9.27946e-09
0.826848
4.48234
-1.87664e-08
4.47448
-1.90982e-08
-0.166548
0.0420743
-1.92969e-12
-0.197143
0.0422531
-5.5501e-12
-0.227893
0.0424634
-2.08068e-11
-0.258824
0.0427056
-3.37537e-11
-0.289961
0.0429804
-3.36648e-11
-0.321327
0.0432886
-3.04586e-11
-0.35295
0.0436313
-2.89242e-11
-0.384856
0.0440094
-2.80467e-11
-0.417074
0.044424
-2.84882e-11
-0.449632
0.0448766
-2.8607e-11
-0.48256
0.0453684
-2.96586e-11
-0.51589
0.0459009
-3.01088e-11
-0.549654
0.0464759
-3.14574e-11
-0.583886
0.0470951
-3.20498e-11
-0.618621
0.0477604
-3.35484e-11
-0.653899
0.048474
-3.41684e-11
-0.689757
0.0492383
-3.57182e-11
-0.726238
0.0500556
-3.62934e-11
-0.763385
0.0509288
-3.78215e-11
-0.801246
0.0518608
-3.83008e-11
-0.83987
0.0528547
-3.97432e-11
-0.87931
0.0539142
-4.00848e-11
-0.919622
0.055043
-4.13821e-11
-0.960866
0.0562451
-4.15583e-11
-1.00311
0.057525
-4.26725e-11
-1.04641
0.0588876
-4.26962e-11
-1.09086
0.0603382
-4.36559e-11
-1.13652
0.0618826
-4.36415e-11
-1.18349
0.063527
-4.46314e-11
-1.23186
0.0652786
-4.48906e-11
-1.28174
0.0671451
-4.63469e-11
-1.33322
0.0691351
-4.74191e-11
-1.38645
0.0712585
-4.99516e-11
-1.44155
0.0735266
-5.22706e-11
-1.49867
0.0759527
-5.59833e-11
-1.55799
0.0785526
-5.87368e-11
-1.61969
0.0813454
-6.16888e-11
-1.68399
0.0843555
-6.12476e-11
-1.75113
0.087614
-5.8599e-11
-1.82141
0.0911623
-5.0054e-11
-1.89517
0.0950564
-3.97306e-11
-1.97282
0.0993747
-2.91374e-11
-2.05485
0.104229
-3.10459e-11
-2.1419
0.109783
-5.90048e-11
-2.23474
0.116279
-1.35611e-10
-2.3344
0.124083
-2.77236e-10
-2.44224
0.133749
-4.98175e-10
-2.56008
0.146117
-7.67839e-10
-2.69041
0.162445
-1.06067e-09
-2.8366
0.184579
-1.22641e-09
-3.00325
0.215156
-1.2033e-09
-3.19639
0.257793
-7.12194e-10
-3.42373
0.317194
2.39629e-10
-3.69451
0.399091
1.72884e-09
-4.01952
0.510101
3.22681e-09
-4.41151
0.657875
4.68471e-09
-4.8887
0.853643
6.5051e-09
-5.48242
1.11546
7.42212e-09
-6.21712
1.46077
7.9798e-09
-7.10412
1.88
7.81585e-09
-7.97286
2.33039
1.30042e-08
-7.40851
2.80716
-1.15989e-08
-6.55407
3.16953
-1.59698e-08
-5.72499
3.42185
-1.7342e-08
-4.9854
3.59983
-1.70967e-08
-4.33251
3.72804
-1.74965e-08
-3.74955
3.82278
-1.46283e-08
-3.21975
3.89443
-1.13639e-08
-2.72961
3.94961
-7.21144e-09
-2.269
3.99258
-3.14679e-09
-1.83039
4.02615
4.7834e-10
-1.40809
4.05218
3.26265e-09
-0.997626
4.07188
5.15717e-09
-0.595317
4.08599
6.26636e-09
-0.197887
4.09475
6.76739e-09
0.197885
4.0978
8.22549e-09
0.595315
4.09475
7.14012e-09
0.997624
4.08599
7.45366e-09
1.40809
4.07188
3.94922e-09
4.05218
1.11947e-09
-0.219973
0.0823055
-8.5874e-13
-0.260379
0.0826589
-8.87442e-12
-0.300993
0.0830767
-1.72666e-11
-0.341847
0.0835598
-3.05555e-11
-0.382976
0.0841097
-2.85835e-11
-0.424415
0.084728
-2.38983e-11
-0.466201
0.0854167
-2.10192e-11
-0.508369
0.0861779
-1.92719e-11
-0.550959
0.0870142
-1.88848e-11
-0.594011
0.0879282
-1.84144e-11
-0.637566
0.0889229
-1.87657e-11
-0.681666
0.0900017
-1.86707e-11
-0.726359
0.0911683
-1.93083e-11
-0.77169
0.0924266
-1.93331e-11
-0.817711
0.0937811
-2.00824e-11
-0.864474
0.0952367
-2.01079e-11
-0.912034
0.0967986
-2.08793e-11
-0.960451
0.0984727
-2.08488e-11
-1.00979
0.100265
-2.15945e-11
-1.06011
0.102184
-2.14868e-11
-1.11149
0.104236
-2.21838e-11
-1.16401
0.106429
-2.20039e-11
-1.21774
0.108774
-2.26535e-11
-1.27277
0.111281
-2.24408e-11
-1.32921
0.113961
-2.30865e-11
-1.38715
0.116827
-2.29416e-11
-1.44671
0.119893
-2.3712e-11
-1.508
0.123176
-2.38512e-11
-1.57116
0.126691
-2.50361e-11
-1.63635
0.130461
-2.5875e-11
-1.70371
0.134506
-2.80129e-11
-1.77342
0.138854
-3.01984e-11
-1.8457
0.143532
-3.40098e-11
-1.92075
0.148576
-3.81333e-11
-1.99882
0.154025
-4.39328e-11
-2.08019
0.159924
-4.95244e-11
-2.16518
0.166329
-5.58281e-11
-2.25413
0.173306
-5.98572e-11
-2.34745
0.180935
-6.23866e-11
-2.4456
0.189314
-6.0141e-11
-2.54911
0.198567
-5.60585e-11
-2.65859
0.208852
-5.09188e-11
-2.77473
0.220371
-5.4563e-11
-2.89834
0.233393
-7.80189e-11
-3.03034
0.248278
-1.39118e-10
-3.17177
0.265521
-2.53521e-10
-3.32383
0.285807
-4.31629e-10
-3.48781
0.310099
-6.57267e-10
-3.66511
0.339741
-9.04885e-10
-3.85713
0.376595
-1.07493e-09
-4.06515
0.423181
-1.10855e-09
-4.29016
0.482798
-8.31578e-10
-4.53253
0.559564
-2.30843e-10
-4.79178
0.658349
7.4572e-10
-5.06628
0.784601
1.84527e-09
-5.35251
0.944101
2.93196e-09
-5.64108
1.14221
4.23122e-09
-5.90645
1.38084
5.67073e-09
-6.0995
1.65382
6.15271e-09
-6.16697
1.94746
5.2556e-09
-6.07674
2.24016
2.90532e-09
-5.78395
2.51437
9.25865e-10
-5.37005
2.75564
-7.05073e-10
-4.90823
2.96002
-2.26178e-09
-4.43541
3.12701
-3.09403e-09
-3.96784
3.26048
-3.67973e-09
-3.51147
3.36641
-3.33034e-09
-3.06754
3.4505
-2.76478e-09
-2.63531
3.51738
-1.76736e-09
-2.21331
3.57058
-8.50499e-10
-1.79985
3.6127
8.08597e-11
-1.39323
3.64555
7.50907e-10
-0.991742
3.6704
1.25629e-09
-0.593756
3.68801
1.54029e-09
-0.197717
3.69871
1.68488e-09
0.197722
3.70236
2.04568e-09
0.593761
3.69871
2.09083e-09
0.991747
3.68801
2.04569e-09
1.39323
3.6704
1.49154e-09
3.64555
6.25156e-10
-0.238775
0.125969
3.40065e-11
-0.282624
0.126508
3.44781e-11
-0.326694
0.127146
1.95134e-11
-0.371021
0.127886
1.18454e-11
-0.415641
0.12873
1.24154e-11
-0.460593
0.12968
1.51114e-11
-0.505914
0.130738
1.66144e-11
-0.551646
0.13191
1.7763e-11
-0.597829
0.133197
1.81909e-11
-0.644507
0.134606
1.89824e-11
-0.691723
0.136139
1.9322e-11
-0.739525
0.137804
2.01833e-11
-0.787961
0.139605
2.05777e-11
-0.837083
0.141548
2.15668e-11
-0.886944
0.143642
2.20542e-11
-0.937601
0.145893
2.32021e-11
-0.989113
0.148311
2.38149e-11
-1.04154
0.150904
2.51448e-11
-1.09496
0.153683
2.59126e-11
-1.14944
0.15666
2.74396e-11
-1.20505
0.159846
2.83867e-11
-1.26188
0.163257
3.01143e-11
-1.32001
0.166906
3.12549e-11
-1.37954
0.170812
3.31667e-11
-1.44057
0.174993
3.44908e-11
-1.50321
0.17947
3.65314e-11
-1.56759
0.184267
3.79751e-11
-1.63382
0.18941
4.00132e-11
-1.70206
0.194928
4.1404e-11
-1.77245
0.200855
4.31714e-11
-1.84517
0.207228
4.41613e-11
-1.92041
0.214089
4.5222e-11
-1.99837
0.221488
4.53207e-11
-2.07927
0.229479
4.52684e-11
-2.16337
0.238128
4.42674e-11
-2.25096
0.247508
4.34847e-11
-2.34233
0.257706
4.25511e-11
-2.43785
0.268823
4.34881e-11
-2.53789
0.28098
4.62416e-11
-2.6429
0.294319
5.33673e-11
-2.75335
0.309013
6.36259e-11
-2.86976
0.325267
7.73522e-11
-2.99273
0.343336
8.85899e-11
-3.12287
0.363534
9.09475e-11
-3.26084
0.386253
7.15455e-11
-3.40731
0.41199
1.95886e-11
-3.56289
0.441383
-7.72553e-11
-3.72805
0.475258
-2.11925e-10
-3.90299
0.514688
-3.79235e-10
-4.08746
0.561062
-5.20052e-10
-4.28043
0.616148
-6.11157e-10
-4.47978
0.682148
-5.42327e-10
-4.6819
0.761688
-3.0984e-10
-4.8813
0.857744
1.69291e-10
-5.07014
0.973446
8.2318e-10
-5.23769
1.11165
1.58927e-09
-5.36941
1.27394
2.35108e-09
-5.44746
1.45889
2.90139e-09
-5.45469
1.66104
3.22771e-09
-5.3791
1.87188
3.23813e-09
-5.22023
2.08128
3.02143e-09
-4.98625
2.28039
2.3667e-09
-4.69312
2.46251
1.50769e-09
-4.35724
2.62415
4.98056e-10
-3.99413
2.7639
-3.39505e-10
-3.61598
2.88233
-9.95084e-10
-3.23097
2.98139
-1.34194e-09
-2.84404
3.06357
-1.48853e-09
-2.45798
3.13131
-1.43388e-09
-2.07409
3.18669
-1.30432e-09
-1.69281
3.23142
-1.12549e-09
-1.31401
3.26676
-9.72482e-10
-0.937254
3.29364
-8.47926e-10
-0.561889
3.31264
-7.69365e-10
-0.187233
3.32405
-7.23211e-10
0.187238
3.32789
-6.27214e-10
0.561894
3.32405
-5.24241e-10
0.93726
3.31264
-5.28604e-10
1.31402
3.29364
-5.75141e-10
3.26676
-8.31894e-10
-0.241551
0.17013
-4.59226e-12
-0.285892
0.170849
-1.25771e-11
-0.330446
0.171701
-1.61364e-11
-0.375251
0.17269
-2.69893e-11
-0.420339
0.173819
-2.48029e-11
-0.465749
0.17509
-2.06312e-11
-0.511518
0.176507
-1.825e-11
-0.557684
0.178076
-1.6886e-11
-0.604288
0.179801
-1.67887e-11
-0.651369
0.181688
-1.65229e-11
-0.698973
0.183743
-1.70129e-11
-0.747142
0.185973
-1.69921e-11
-0.795924
0.188387
-1.76693e-11
-0.845367
0.190991
-1.76976e-11
-0.895522
0.193797
-1.84459e-11
-0.946444
0.196815
-1.84512e-11
-0.998188
0.200055
-1.92157e-11
-1.05081
0.20353
-1.91629e-11
-1.10438
0.207254
-1.99099e-11
-1.15897
0.211243
-1.97823e-11
-1.21463
0.215512
-2.04924e-11
-1.27146
0.220081
-2.02911e-11
-1.32952
0.22497
-2.09644e-11
-1.38891
0.230202
-2.07186e-11
-1.44972
0.235801
-2.13895e-11
-1.51204
0.241796
-2.11742e-11
-1.57599
0.248217
-2.19396e-11
-1.64168
0.255098
-2.19087e-11
-1.70923
0.26248
-2.29768e-11
-1.77878
0.270404
-2.34174e-11
-1.85047
0.278918
-2.51705e-11
-1.92446
0.288079
-2.65443e-11
-2.00092
0.297948
-2.955e-11
-2.08004
0.308594
-3.24055e-11
-2.16201
0.320098
-3.71899e-11
-2.24705
0.332551
-4.17118e-11
-2.3354
0.346057
-4.80764e-11
-2.42732
0.360736
-5.32188e-11
-2.52306
0.376728
-5.9402e-11
-2.62294
0.394191
-6.25704e-11
-2.72724
0.413314
-6.6103e-11
-2.83629
0.434315
-6.614e-11
-2.9504
0.45745
-6.95186e-11
-3.06989
0.483021
-7.49462e-11
-3.19502
0.511388
-9.491e-11
-3.32601
0.542978
-1.29914e-10
-3.46293
0.578306
-1.9546e-10
-3.60567
0.617992
-2.82564e-10
-3.75376
0.662784
-4.00762e-10
-3.90628
0.713581
-5.1245e-10
-4.06159
0.771454
-6.17536e-10
-4.21708
0.83764
-6.47134e-10
-4.36891
0.913516
-6.06789e-10
-4.51168
1.00052
-4.32326e-10
-4.63824
1.10001
-1.5605e-10
-4.73956
1.21297
2.17747e-10
-4.80525
1.33962
6.21959e-10
-4.82515
1.47879
9.53053e-10
-4.79168
1.62757
1.17835e-09
-4.70132
1.78152
1.20039e-09
-4.55545
1.93541
1.09875e-09
-4.35933
2.08428
8.10804e-10
-4.12084
2.22402
4.71772e-10
-3.84856
2.35186
7.43242e-11
-3.55095
2.46629
-2.42491e-10
-3.2355
2.56687
-4.91076e-10
-2.90815
2.65404
-6.78572e-10
-2.57327
2.72869
-6.86732e-10
-2.23388
2.79192
-6.76476e-10
-1.89196
2.84478
-6.29873e-10
-1.54875
2.8882
-5.63417e-10
-1.20493
2.92294
-5.07463e-10
-0.860832
2.94954
-4.63347e-10
-0.516587
2.96839
-4.36156e-10
-0.172214
2.97968
-4.20128e-10
0.172219
2.98346
-3.76471e-10
0.516592
2.97968
-3.28086e-10
0.860837
2.96839
-2.65241e-10
1.20493
2.94954
-2.32491e-10
2.92294
-2.78355e-10
-0.238172
0.213658
3.38324e-11
-0.281867
0.214543
3.5905e-11
-0.325759
0.215594
2.4212e-11
-0.369881
0.216812
1.99443e-11
-0.414266
0.218203
2.0056e-11
-0.458946
0.21977
2.15285e-11
-0.503956
0.221517
2.22299e-11
-0.54933
0.223451
2.28125e-11
-0.595106
0.225577
2.30239e-11
-0.641321
0.227902
2.35727e-11
-0.688012
0.230434
2.39106e-11
-0.73522
0.233181
2.46551e-11
-0.782986
0.236153
2.51433e-11
-0.831353
0.239359
2.60579e-11
-0.880366
0.242811
2.66691e-11
-0.930073
0.246521
2.77383e-11
-0.980521
0.250503
2.84723e-11
-1.03176
0.254771
2.97017e-11
-1.08385
0.259343
3.05763e-11
-1.13684
0.264236
3.19789e-11
-1.1908
0.269469
3.30183e-11
-1.24578
0.275064
3.46058e-11
-1.30186
0.281046
3.58303e-11
-1.3591
0.28744
3.76019e-11
-1.41757
0.294276
3.90186e-11
-1.47736
0.301586
4.09527e-11
-1.53855
0.309405
4.25418e-11
-1.60123
0.317772
4.45785e-11
-1.66548
0.326732
4.6267e-11
-1.73141
0.336332
4.82799e-11
-1.79912
0.346627
4.99044e-11
-1.86871
0.357677
5.16725e-11
-1.94032
0.369549
5.29648e-11
-2.01404
0.382319
5.42136e-11
-2.09001
0.396072
5.49165e-11
-2.16836
0.410901
5.55681e-11
-2.24922
0.426916
5.58347e-11
-2.33272
0.444235
5.6557e-11
-2.41899
0.462997
5.75564e-11
-2.50815
0.483354
6.02023e-11
-2.60032
0.505481
6.40603e-11
-2.69558
0.529577
7.05873e-11
-2.794
0.555866
7.78834e-11
-2.89558
0.584602
8.62925e-11
-3.00027
0.616073
9.0885e-11
-3.1079
0.650609
9.07152e-11
-3.21817
0.688581
7.79822e-11
-3.33059
0.730411
5.49533e-11
-3.44438
0.776573
1.43171e-11
-3.5584
0.827599
-2.92521e-11
-3.67101
0.884069
-7.98694e-11
-3.77998
0.946606
-1.06645e-10
-3.8823
1.01583
-1.15263e-10
-3.97411
1.09233
-7.2463e-11
-4.05064
1.17654
5.68153e-12
-4.1063
1.26862
1.28558e-10
-4.13499
1.36831
2.70357e-10
-4.13089
1.47469
4.00896e-10
-4.08947
1.58615
5.04181e-10
-4.00835
1.7004
5.32986e-10
-3.8877
1.81476
5.11782e-10
-3.72993
1.92651
4.09067e-10
-3.53913
2.03322
2.8606e-10
-3.32027
2.133
1.31572e-10
-3.07854
2.22457
6.36726e-12
-2.81888
2.30721
-1.0233e-10
-2.54555
2.38071
-1.61812e-10
-2.26205
2.4452
-1.99298e-10
-1.97111
2.50098
-2.02605e-10
-1.67479
2.54846
-1.94167e-10
-1.3746
2.58801
-1.77417e-10
-1.07166
2.61999
-1.63687e-10
-0.766773
2.64466
-1.54398e-10
-0.460581
2.6622
-1.49036e-10
-0.153613
2.67271
-1.46851e-10
0.153617
2.67623
-1.28807e-10
0.460585
2.67271
-8.74111e-11
0.766777
2.6622
-3.38304e-11
1.07166
2.64466
2.27292e-11
2.61999
1.96181e-11
-0.232293
0.256094
-1.41434e-11
-0.274876
0.257127
-1.96997e-11
-0.317635
0.258353
-1.89215e-11
-0.360598
0.259775
-2.45999e-11
-0.403793
0.261398
-2.28322e-11
-0.44725
0.263227
-2.01993e-11
-0.490999
0.265266
-1.88573e-11
-0.535069
0.267521
-1.81826e-11
-0.579493
0.270001
-1.84037e-11
-0.624302
0.272711
-1.84841e-11
-0.669529
0.275661
-1.91154e-11
-0.715208
0.27886
-1.9368e-11
-0.761373
0.282318
-2.01384e-11
-0.80806
0.286046
-2.04382e-11
-0.855307
0.290057
-2.12783e-11
-0.903152
0.294365
-2.15816e-11
-0.951633
0.298984
-2.24545e-11
-1.00079
0.303931
-2.27324e-11
-1.05067
0.309224
-2.36072e-11
-1.10132
0.314881
-2.38367e-11
-1.15277
0.320924
-2.4687e-11
-1.20509
0.327378
-2.4854e-11
-1.25831
0.334266
-2.56637e-11
-1.31248
0.341618
-2.57697e-11
-1.36767
0.349463
-2.6544e-11
-1.42392
0.357837
-2.66172e-11
-1.48129
0.366775
-2.73957e-11
-1.53984
0.376319
-2.7505e-11
-1.59962
0.386512
-2.83855e-11
-1.66069
0.397405
-2.86627e-11
-1.72312
0.409052
-2.98303e-11
-1.78695
0.421513
-3.04952e-11
-1.85226
0.434852
-3.22451e-11
-1.91908
0.449145
-3.35982e-11
-1.98748
0.46447
-3.62933e-11
-2.0575
0.480918
-3.86001e-11
-2.12917
0.498586
-4.2469e-11
-2.20251
0.517583
-4.5655e-11
-2.27754
0.538029
-5.04198e-11
-2.35425
0.560057
-5.37209e-11
-2.43258
0.583814
-5.84081e-11
-2.51246
0.60946
-6.05991e-11
-2.59377
0.637171
-6.44027e-11
-2.67631
0.66714
-6.54924e-11
-2.75981
0.699579
-7.02033e-11
-2.84392
0.734715
-7.40877e-11
-2.92813
0.772793
-8.60661e-11
-3.01179
0.814073
-1.00379e-10
-3.09405
0.858831
-1.27147e-10
-3.1738
0.907347
-1.56093e-10
-3.24963
0.959903
-1.95989e-10
-3.31979
1.01676
-2.30114e-10
-3.38211
1.07815
-2.64924e-10
-3.43401
1.14423
-2.82115e-10
-3.47251
1.21504
-2.87162e-10
-3.49433
1.29044
-2.71578e-10
-3.49607
1.37005
-2.3943e-10
-3.4746
1.45322
-2.00672e-10
-3.42738
1.53893
-1.52345e-10
-3.35291
1.62593
-1.20161e-10
-3.2509
1.71275
-8.63019e-11
-3.12226
1.79787
-8.03671e-11
-2.96893
1.87989
-7.05219e-11
-2.79354
1.95761
-8.20734e-11
-2.59905
2.03008
-8.02346e-11
-2.38849
2.09665
-8.77466e-11
-2.16471
2.15693
-7.89185e-11
-1.93025
2.21073
-6.71185e-11
-1.68725
2.25799
-5.58359e-11
-1.43754
2.29875
-4.27899e-11
-1.18261
2.33308
-2.74513e-11
-0.923677
2.36106
-1.91185e-11
-0.6618
2.38278
-1.39701e-11
-0.397884
2.39829
-1.45057e-11
-0.132762
2.40759
-2.00187e-11
0.132764
2.4107
-2.2402e-11
0.397887
2.40759
-3.65508e-12
0.661802
2.39829
8.55346e-13
0.923679
2.38278
3.98152e-11
2.36106
1.33214e-11
-0.225055
0.297185
1.81331e-11
-0.266273
0.298345
2.25104e-11
-0.307642
0.299721
1.60996e-11
-0.349185
0.301318
1.73196e-11
-0.390926
0.30314
1.70799e-11
-0.432891
0.305191
1.70177e-11
-0.475103
0.307478
1.67381e-11
-0.517589
0.310007
1.66821e-11
-0.560373
0.312785
1.66242e-11
-0.603482
0.31582
1.6825e-11
-0.646942
0.319121
1.70045e-11
-0.69078
0.322698
1.74098e-11
-0.735024
0.326561
1.77323e-11
-0.779701
0.330723
1.82631e-11
-0.82484
0.335197
1.86703e-11
-0.87047
0.339995
1.92935e-11
-0.91662
0.345135
1.97726e-11
-0.963321
0.350632
2.04882e-11
-1.0106
0.356505
2.10511e-11
-1.05849
0.362773
2.18724e-11
-1.10703
0.369459
2.25397e-11
-1.15624
0.376586
2.34813e-11
-1.20615
0.38418
2.42733e-11
-1.2568
0.392268
2.53427e-11
-1.30822
0.40088
2.62711e-11
-1.36043
0.410051
2.7464e-11
-1.41347
0.419815
2.85268e-11
-1.46737
0.430213
2.982e-11
-1.52214
0.441285
3.09901e-11
-1.57782
0.45308
3.23323e-11
-1.63441
0.465648
3.35426e-11
-1.69194
0.479043
3.48392e-11
-1.75042
0.493326
3.59682e-11
-1.80983
0.508562
3.70804e-11
-1.87018
0.524821
3.79625e-11
-1.93145
0.54218
3.87553e-11
-1.99358
0.560724
3.92706e-11
-2.05654
0.580541
3.97524e-11
-2.12024
0.60173
4.00141e-11
-2.18458
0.624396
4.05475e-11
-2.24942
0.64865
4.10755e-11
-2.31457
0.674614
4.23966e-11
-2.37982
0.702414
4.38859e-11
-2.44486
0.732185
4.64786e-11
-2.50935
0.764067
4.87448e-11
-2.57284
0.798204
5.13962e-11
-2.63479
0.834742
5.184e-11
-2.69454
0.873827
5.0939e-11
-2.75131
0.915598
4.52516e-11
-2.80414
0.960182
3.59909e-11
-2.85193
1.00769
2.04714e-11
-2.89336
1.0582
2.21184e-12
-2.92694
1.11173
-2.01161e-11
-2.95099
1.16828
-4.11923e-11
-2.96366
1.22771
-6.02171e-11
-2.96305
1.28982
-7.44871e-11
-2.94725
1.35426
-8.17404e-11
-2.91456
1.42052
-8.37787e-11
-2.8636
1.48798
-7.65177e-11
-2.79352
1.55585
-6.85437e-11
-2.70406
1.62329
-5.27022e-11
-2.5956
1.68941
-4.11633e-11
-2.46905
1.75335
-2.34914e-11
-2.3258
1.81436
-1.25415e-11
-2.16749
1.87177
3.40033e-12
-1.99592
1.92507
1.36497e-11
-1.81287
1.97388
2.76752e-11
-1.62006
2.01792
3.70936e-11
-1.41907
2.057
4.89158e-11
-1.21134
2.09102
5.69459e-11
-0.998146
2.11988
6.5207e-11
-0.780645
2.14356
6.98163e-11
-0.559884
2.16202
7.23781e-11
-0.336837
2.17524
7.27201e-11
-0.11243
2.18318
7.32045e-11
0.112431
2.18584
8.79355e-11
0.336838
2.18318
4.72025e-11
0.559885
2.17524
6.29566e-11
0.780646
2.16202
2.70684e-11
2.14356
2.75212e-11
-0.216849
0.336754
-2.43594e-11
-0.256522
0.338018
-2.7476e-11
-0.296318
0.339518
-2.22638e-11
-0.336257
0.341257
-2.31272e-11
-0.376359
0.343241
-2.20714e-11
-0.416643
0.345475
-2.11254e-11
-0.457127
0.347963
-2.08061e-11
-0.497834
0.350713
-2.0751e-11
-0.538781
0.353732
-2.1175e-11
-0.579988
0.357028
-2.1515e-11
-0.621477
0.36061
-2.21925e-11
-0.663267
0.364487
-2.26631e-11
-0.705377
0.368672
-2.34596e-11
-0.747828
0.373174
-2.39966e-11
-0.79064
0.378008
-2.48749e-11
-0.833832
0.383187
-2.54516e-11
-0.877423
0.388727
-2.63861e-11
-0.921434
0.394643
-2.69776e-11
-0.965882
0.400953
-2.79402e-11
-1.01079
0.407678
-2.85214e-11
-1.05616
0.414837
-2.94838e-11
-1.10203
0.422453
-3.0031e-11
-1.1484
0.43055
-3.09672e-11
-1.19529
0.439156
-3.14637e-11
-1.24271
0.448298
-3.23577e-11
-1.29066
0.458007
-3.28023e-11
-1.33916
0.468316
-3.36591e-11
-1.38821
0.47926
-3.40693e-11
-1.4378
0.490879
-3.49123e-11
-1.48794
0.503212
-3.53212e-11
-1.53859
0.516305
-3.62047e-11
-1.58976
0.530206
-3.6697e-11
-1.64139
0.544965
-3.77398e-11
-1.69347
0.560637
-3.84427e-11
-1.74593
0.57728
-3.98113e-11
-1.79871
0.594958
-4.08822e-11
-1.85172
0.613735
-4.27295e-11
-1.90486
0.633682
-4.42529e-11
-1.958
0.654873
-4.66504e-11
-2.01099
0.677386
-4.85879e-11
-2.06364
0.701299
-5.14031e-11
-2.11572
0.726698
-5.35675e-11
-2.16697
0.753666
-5.64759e-11
-2.21708
0.782288
-5.82194e-11
-2.26566
0.812651
-6.08169e-11
-2.31229
0.844834
-6.26598e-11
-2.35646
0.878915
-6.60367e-11
-2.3976
0.914961
-6.92762e-11
-2.43503
0.953029
-7.49921e-11
-2.468
0.993157
-8.19538e-11
-2.49568
1.03536
-9.24868e-11
-2.51711
1.07963
-1.05096e-10
-2.53127
1.1259
-1.1242e-10
-2.53708
1.17409
-1.35091e-10
-2.53341
1.22404
-1.61682e-10
-2.51911
1.27553
-1.72321e-10
-2.49311
1.32827
-1.76236e-10
-2.45448
1.38189
-1.88673e-10
-2.40247
1.43597
-1.90688e-10
-2.33661
1.48999
-1.90137e-10
-2.25676
1.54343
-1.80633e-10
-2.16308
1.59574
-1.70866e-10
-2.05609
1.64636
-1.53552e-10
-1.93652
1.69478
-1.38486e-10
-1.80532
1.74057
-1.18241e-10
-1.66357
1.78332
-1.02073e-10
-1.5124
1.82271
-8.29777e-11
-1.35296
1.85849
-6.85304e-11
-1.18639
1.89043
-5.27631e-11
-1.01377
1.91839
-4.11654e-11
-0.83612
1.94224
-2.95165e-11
-0.654434
1.96188
-2.16162e-11
-0.469646
1.97724
-1.58464e-11
-0.282662
1.98825
-1.32596e-11
-0.0943666
1.99489
-1.1471e-11
0.0943677
1.99711
1.94583e-12
0.282664
1.99489
-3.55813e-11
0.469647
1.98825
-5.2489e-11
0.654435
1.97724
-1.08669e-10
1.96188
-1.45355e-10
-0.207883
0.374661
4.57688e-12
-0.245872
0.376006
9.79122e-12
-0.283957
0.377602
8.49364e-12
-0.322153
0.379453
1.32685e-11
-0.360473
0.381562
1.2551e-11
-0.398934
0.383935
1.12124e-11
-0.437549
0.386578
1.02047e-11
-0.476333
0.389497
9.67289e-12
-0.515299
0.392698
9.44107e-12
-0.554462
0.396191
9.36497e-12
-0.593835
0.399983
9.42331e-12
-0.633432
0.404084
9.53393e-12
-0.673265
0.408505
9.71167e-12
-0.713347
0.413256
9.89922e-12
-0.753689
0.418351
1.01204e-11
-0.794303
0.423801
1.03458e-11
-0.835199
0.429622
1.05974e-11
-0.876386
0.43583
1.08591e-11
-0.917873
0.442439
1.11486e-11
-0.959665
0.44947
1.14664e-11
-1.00177
0.45694
1.18284e-11
-1.04419
0.464871
1.22277e-11
-1.08692
0.473284
1.26532e-11
-1.12997
0.482204
1.30717e-11
-1.17332
0.491655
1.35634e-11
-1.21698
0.501665
1.40644e-11
-1.26093
0.512263
1.46613e-11
-1.30515
0.52348
1.53007e-11
-1.34962
0.535348
1.60444e-11
-1.39431
0.547903
1.69003e-11
-1.43919
0.561182
1.78107e-11
-1.48421
0.575223
1.85641e-11
-1.52931
0.590069
1.92928e-11
-1.57443
0.605762
1.97929e-11
-1.6195
0.622348
2.01155e-11
-1.66442
0.639876
2.02307e-11
-1.70908
0.658394
2.05832e-11
-1.75335
0.677953
2.06489e-11
-1.79708
0.698606
2.06925e-11
-1.8401
0.720406
2.0416e-11
-1.88221
0.743407
2.01172e-11
-1.92317
0.76766
1.95059e-11
-1.96273
0.793218
1.89408e-11
-2.00057
0.820129
1.80909e-11
-2.03635
0.848437
1.73413e-11
-2.0697
0.878181
1.61914e-11
-2.10017
0.909391
1.50448e-11
-2.1273
0.942087
1.30812e-11
-2.15055
0.976277
1.07808e-11
-2.16934
1.01195
6.90648e-12
-2.18306
1.04907
2.26067e-12
-2.19103
1.0876
-4.70527e-12
-2.19257
1.12744
-1.24625e-11
-2.18696
1.16848
-2.24621e-11
-2.1735
1.21057
-3.1918e-11
-2.1515
1.25353
-4.32785e-11
-2.12034
1.29711
-5.2845e-11
-2.07949
1.34104
-6.26393e-11
-2.02855
1.38502
-6.83916e-11
-1.96726
1.42871
-7.33932e-11
-1.89557
1.47174
-7.35061e-11
-1.81358
1.51375
-7.28126e-11
-1.7216
1.55437
-6.76518e-11
-1.62007
1.59326
-6.24512e-11
-1.50958
1.63008
-5.40883e-11
-1.3908
1.66455
-4.66761e-11
-1.2645
1.69641
-3.75252e-11
-1.13145
1.72544
-2.99424e-11
-0.992465
1.75145
-2.15919e-11
-0.848364
1.77429
-1.48786e-11
-0.699954
1.79383
-7.98548e-12
-0.548033
1.80996
-2.93945e-12
-0.393392
1.82259
1.08554e-12
-0.236811
1.83167
4.29153e-12
-0.0790663
1.83714
1.13338e-11
0.0790671
1.83898
3.93994e-11
0.236811
1.83714
-1.29275e-11
0.393392
1.83167
-8.49683e-12
0.548034
1.82259
-8.15714e-11
1.80996
-1.01384e-10
-0.198335
0.410802
-2.96536e-11
-0.234534
0.412206
-3.04393e-11
-0.270802
0.41387
-2.26442e-11
-0.307149
0.4158
-1.95121e-11
-0.343585
0.417999
-1.91e-11
-0.38012
0.420471
-1.9553e-11
-0.416764
0.423222
-2.00465e-11
-0.453525
0.426258
-2.04729e-11
-0.490412
0.429585
-2.10043e-11
-0.527434
0.433212
-2.15195e-11
-0.564598
0.437147
-2.2168e-11
-0.601911
0.441397
-2.27744e-11
-0.63938
0.445974
-2.35133e-11
-0.67701
0.450886
-2.41892e-11
-0.714806
0.456146
-2.50011e-11
-0.75277
0.461766
-2.57301e-11
-0.790906
0.467758
-2.65973e-11
-0.829214
0.474137
-2.73591e-11
-0.867693
0.480918
-2.8258e-11
-0.90634
0.488117
-2.90297e-11
-0.945151
0.495751
-2.99349e-11
-0.984117
0.503837
-3.06921e-11
-1.02323
0.512396
-3.15754e-11
-1.06247
0.521449
-3.22952e-11
-1.10184
0.531016
-3.31324e-11
-1.14129
0.54112
-3.37997e-11
-1.18082
0.551788
-3.45747e-11
-1.22038
0.563043
-3.51821e-11
-1.25994
0.574913
-3.58825e-11
-1.29946
0.587426
-3.64232e-11
-1.33889
0.600612
-3.70442e-11
-1.37817
0.614501
-3.75409e-11
-1.41723
0.629125
-3.81127e-11
-1.45598
0.644518
-3.86108e-11
-1.49435
0.660713
-3.91873e-11
-1.53222
0.677744
-3.97541e-11
-1.56947
0.695646
-4.03822e-11
-1.60597
0.714454
-4.10663e-11
-1.64156
0.734202
-4.18017e-11
-1.67608
0.754925
-4.26701e-11
-1.70933
0.776653
-4.35451e-11
-1.74109
0.799418
-4.46179e-11
-1.77111
0.823245
-4.5598e-11
-1.79914
0.848157
-4.68381e-11
-1.82488
0.874171
-4.78357e-11
-1.84799
0.901297
-4.92013e-11
-1.86814
0.929538
-5.01677e-11
-1.88494
0.958886
-5.17368e-11
-1.89798
0.98932
-5.28011e-11
-1.90684
1.02081
-5.48742e-11
-1.91106
1.0533
-5.63793e-11
-1.91018
1.08672
-5.93834e-11
-1.90373
1.12099
-6.16614e-11
-1.89124
1.15599
-6.57545e-11
-1.87226
1.19159
-6.86802e-11
-1.84637
1.22764
-7.33851e-11
-1.81321
1.26394
-7.61562e-11
-1.77247
1.3003
-8.02952e-11
-1.72393
1.33648
-8.16448e-11
-1.66747
1.37225
-8.38568e-11
-1.60306
1.40734
-8.27706e-11
-1.53082
1.4415
-8.2304e-11
-1.45093
1.47448
-7.8619e-11
-1.3637
1.50602
-7.56702e-11
-1.26951
1.53589
-7.01028e-11
-1.16884
1.56387
-6.55986e-11
-1.0622
1.58977
-5.92915e-11
-0.950155
1.61339
-5.43144e-11
-0.833299
1.63459
-4.82323e-11
-0.71225
1.65324
-4.34919e-11
-0.587636
1.66921
-3.81939e-11
-0.460097
1.68242
-3.43393e-11
-0.330276
1.69277
-3.10358e-11
-0.19882
1.70022
-2.77234e-11
-0.0663829
1.70471
-1.95882e-11
0.0663834
1.70621
1.09021e-11
0.198821
1.70471
-3.26879e-11
0.330276
1.70022
-2.95635e-11
0.460097
1.69277
-9.69867e-11
1.68242
-1.20437e-10
-0.188366
0.445101
-2.45369e-12
-0.222702
0.446541
3.06281e-12
-0.257081
0.448249
4.83153e-12
-0.291509
0.450228
1.1391e-11
-0.325992
0.452481
1.03917e-11
-0.360534
0.455013
8.3116e-12
-0.395142
0.457829
6.9116e-12
-0.429819
0.460935
6.08516e-12
-0.46457
0.464336
5.75523e-12
-0.499397
0.468039
5.47763e-12
-0.534302
0.472052
5.45163e-12
-0.569288
0.476383
5.33315e-12
-0.604355
0.48104
5.41084e-12
-0.639503
0.486033
5.34609e-12
-0.674729
0.491372
5.46304e-12
-0.710031
0.497068
5.41745e-12
-0.745404
0.503132
5.5559e-12
-0.780842
0.509576
5.52531e-12
-0.816337
0.516413
5.68755e-12
-0.851879
0.523658
5.67911e-12
-0.887453
0.531325
5.87455e-12
-0.923046
0.53943
5.89799e-12
-0.958638
0.547988
6.13592e-12
-0.994207
0.557018
6.19775e-12
-1.02973
0.566536
6.48545e-12
-1.06517
0.576563
6.58848e-12
-1.1005
0.587117
6.92843e-12
-1.13568
0.598219
7.06893e-12
-1.17065
0.609891
7.45697e-12
-1.20538
0.622154
7.62169e-12
-1.2398
0.63503
8.04321e-12
-1.27384
0.648543
8.2064e-12
-1.30743
0.662716
8.63358e-12
-1.34049
0.677572
8.75446e-12
-1.37291
0.693135
9.14462e-12
-1.40459
0.709428
9.16699e-12
-1.43542
0.726474
9.46427e-12
-1.46526
0.744295
9.31941e-12
-1.49397
0.76291
9.45903e-12
-1.52139
0.782339
9.07432e-12
-1.54733
0.802598
8.9976e-12
-1.57161
0.823701
8.31297e-12
-1.59402
0.845656
7.98716e-12
-1.61434
0.868469
6.97318e-12
-1.6323
0.892139
6.40251e-12
-1.64767
0.916659
5.05841e-12
-1.66014
0.942015
4.26644e-12
-1.66944
0.968184
2.5877e-12
-1.67525
0.995133
1.57192e-12
-1.67726
1.02282
-4.93245e-13
-1.67515
1.05118
-1.7998e-12
-1.66858
1.08015
-4.34906e-12
-1.65725
1.10965
-6.03674e-12
-1.64083
1.13958
-9.11504e-12
-1.61905
1.16981
-1.11655e-11
-1.59165
1.20023
-1.46194e-11
-1.55839
1.23069
-1.67949e-11
-1.51911
1.26102
-2.02036e-11
-1.4737
1.29107
-2.2043e-11
-1.42209
1.32064
-2.48369e-11
-1.3643
1.34955
-2.58669e-11
-1.30042
1.37762
-2.75948e-11
-1.2306
1.40466
-2.7565e-11
-1.15506
1.43049
-2.80944e-11
-1.07408
1.45492
-2.70971e-11
-0.988004
1.4778
-2.6655e-11
-0.897202
1.49896
-2.50567e-11
-0.802094
1.51828
-2.40658e-11
-0.703129
1.53563
-2.22689e-11
-0.600782
1.55089
-2.10785e-11
-0.495542
1.56397
-1.93889e-11
-0.387918
1.57479
-1.84892e-11
-0.278427
1.58328
-1.77951e-11
-0.167595
1.58939
-1.6181e-11
-0.0559549
1.59307
-8.23322e-12
0.0559552
1.5943
2.38691e-11
0.167595
1.59307
-1.79069e-11
0.278427
1.58939
-7.41332e-12
0.387919
1.58328
-6.85839e-11
1.57479