/*--------------------------------*- C++ -*----------------------------------*\
| =========                 |                                                 |
| \\      /  F ield         | OpenFOAM: The Open Source CFD Toolbox           |
|  \\    /   O peration     | Version:  2306                                  |
|   \\  /    A nd           | Website:  www.openfoam.com                      |
|    \\/     M anipulation  |                                                 |
\*---------------------------------------------------------------------------*/
FoamFile
{
    version     2.0;
    format      ascii;
    arch        "LSB;label=32;scalar=64";
    class       volVectorField;
    location    "62.5";
    object      U;
}
// * * * * * * * * * * * * * * * * * * * * * * * * * * * * * * * * * * * * * //

dimensions      [0 1 -1 0 0 0 0];

internalField   nonuniform List<vector> 
14400
(
(-0.00228865 5.9927e-05 -4.88242e-12)
(-0.0027503 5.98991e-05 -4.75728e-12)
(-0.00321395 5.9811e-05 -3.15668e-12)
(-0.00367991 5.96632e-05 -3.29324e-12)
(-0.00414849 5.94557e-05 -3.30582e-12)
(-0.00461999 5.91876e-05 -3.48387e-12)
(-0.00509475 5.88563e-05 -3.56451e-12)
(-0.00557308 5.8458e-05 -3.77386e-12)
(-0.00605535 5.79871e-05 -3.86901e-12)
(-0.00654189 5.74361e-05 -4.09041e-12)
(-0.00703307 5.67962e-05 -4.19057e-12)
(-0.00752926 5.60563e-05 -4.42541e-12)
(-0.00803084 5.52036e-05 -4.53346e-12)
(-0.00853821 5.42229e-05 -4.78358e-12)
(-0.00905178 5.30966e-05 -4.90022e-12)
(-0.00957197 5.1804e-05 -5.16515e-12)
(-0.0100992 5.03214e-05 -5.28847e-12)
(-0.0106339 4.86212e-05 -5.56633e-12)
(-0.0111766 4.66713e-05 -5.69199e-12)
(-0.0117277 4.44345e-05 -5.98021e-12)
(-0.0122877 4.18674e-05 -6.10146e-12)
(-0.0128572 3.89194e-05 -6.39763e-12)
(-0.0134366 3.55315e-05 -6.50523e-12)
(-0.0140264 3.16346e-05 -6.80813e-12)
(-0.0146272 2.71475e-05 -6.89076e-12)
(-0.0152395 2.19747e-05 -7.20216e-12)
(-0.0158639 1.60037e-05 -7.24779e-12)
(-0.0165009 9.10147e-06 -7.57538e-12)
(-0.0171511 1.11047e-06 -7.5749e-12)
(-0.0178149 -8.15616e-06 -7.9373e-12)
(-0.018493 -1.89205e-05 -7.89145e-12)
(-0.0191857 -3.14466e-05 -8.32434e-12)
(-0.0198935 -4.6049e-05 -8.252e-12)
(-0.0206168 -6.31018e-05 -8.81034e-12)
(-0.0213559 -8.305e-05 -8.74756e-12)
(-0.0221111 -0.000106421 -9.49076e-12)
(-0.0228825 -0.000133838 -9.4567e-12)
(-0.0236702 -0.000166032 -1.04055e-11)
(-0.0244742 -0.000203851 -1.03204e-11)
(-0.0252944 -0.000248264 -1.14229e-11)
(-0.026131 -0.000300349 -1.10583e-11)
(-0.0269842 -0.000361253 -1.23209e-11)
(-0.027855 -0.000432096 -1.15961e-11)
(-0.0287452 -0.000513771 -1.35809e-11)
(-0.0296591 -0.000606565 -1.36613e-11)
(-0.0306047 -0.000709452 -1.80663e-11)
(-0.0315965 -0.000818831 -2.29337e-11)
(-0.0326601 -0.000926352 -3.18523e-11)
(-0.0338396 -0.00101522 -4.76654e-11)
(-0.0352083 -0.00105406 -6.03956e-11)
(-0.0368858 -0.000986437 -8.91429e-11)
(-0.0390597 -0.000712992 -1.0057e-10)
(-0.0420083 -6.27465e-05 -1.30517e-10)
(-0.046152 0.00125078 -1.42497e-10)
(-0.0522492 0.00373565 -1.78028e-10)
(-0.0614945 0.0083644 -2.28614e-10)
(-0.074707 0.015682 -3.32771e-10)
(-0.0922771 0.0226976 -3.22893e-10)
(-0.111662 0.0230074 -7.95277e-10)
(-0.121434 0.000989178 -3.44707e-10)
(-0.238454 0.0248952 -2.21355e-10)
(-0.209472 0.35739 1.85424e-10)
(-0.162106 0.463743 8.11193e-10)
(-0.135471 0.49224 8.6484e-10)
(-0.119963 0.498238 1.00242e-09)
(-0.106233 0.498456 9.70955e-10)
(-0.0932105 0.497522 9.22068e-10)
(-0.0809473 0.496683 8.11733e-10)
(-0.0693554 0.49618 7.11204e-10)
(-0.0583344 0.495961 6.08507e-10)
(-0.0478068 0.495929 5.42011e-10)
(-0.0377008 0.496001 4.75718e-10)
(-0.0279434 0.496119 4.54199e-10)
(-0.0184615 0.496245 4.04834e-10)
(-0.00918206 0.496347 4.17453e-10)
(-1.05644e-07 0.496389 3.49081e-10)
(0.00918183 0.496347 4.40833e-10)
(0.0184612 0.496245 -6.51505e-11)
(0.0279431 0.496119 1.362e-09)
(0.0377005 0.496001 -3.95636e-10)
(-0.00600378 0.00245382 -4.70434e-12)
(-0.00721509 0.00246399 -4.93689e-12)
(-0.0084321 0.00247586 -3.37559e-12)
(-0.00965578 0.00248945 -3.50644e-12)
(-0.0108871 0.00250481 -3.57553e-12)
(-0.012127 0.00252197 -3.72807e-12)
(-0.0133766 0.002541 -3.86943e-12)
(-0.014637 0.00256194 -4.04835e-12)
(-0.0159091 0.00258485 -4.20887e-12)
(-0.0171941 0.0026098 -4.39827e-12)
(-0.0184932 0.00263685 -4.56839e-12)
(-0.0198076 0.00266608 -4.77018e-12)
(-0.0211385 0.00269755 -4.95247e-12)
(-0.0224874 0.00273135 -5.16878e-12)
(-0.0238555 0.00276757 -5.36344e-12)
(-0.0252444 0.0028063 -5.59393e-12)
(-0.0266555 0.00284763 -5.79842e-12)
(-0.0280904 0.00289168 -6.04099e-12)
(-0.0295509 0.00293854 -6.25023e-12)
(-0.0310388 0.00298835 -6.50159e-12)
(-0.032556 0.0030412 -6.70815e-12)
(-0.0341044 0.00309724 -6.96427e-12)
(-0.0356863 0.00315659 -7.15859e-12)
(-0.0373039 0.00321938 -7.41545e-12)
(-0.0389598 0.00328574 -7.58662e-12)
(-0.0406565 0.00335582 -7.84148e-12)
(-0.0423969 0.00342975 -7.97915e-12)
(-0.044184 0.00350766 -8.23329e-12)
(-0.0460212 0.00358967 -8.33212e-12)
(-0.047912 0.00367592 -8.59576e-12)
(-0.0498603 0.0037665 -8.66352e-12)
(-0.0518704 0.00386153 -8.96298e-12)
(-0.0539469 0.00396111 -9.03087e-12)
(-0.0560949 0.00406533 -9.41334e-12)
(-0.05832 0.00417432 -9.53734e-12)
(-0.0606286 0.00428823 -1.00594e-11)
(-0.0630278 0.00440732 -1.02866e-11)
(-0.0655255 0.00453202 -1.09697e-11)
(-0.068131 0.00466305 -1.12473e-11)
(-0.0708547 0.0048017 -1.20247e-11)
(-0.073709 0.00495014 -1.21266e-11)
(-0.0767088 0.00511204 -1.29322e-11)
(-0.0798717 0.00529355 -1.27334e-11)
(-0.0832196 0.0055049 -1.39801e-11)
(-0.0867799 0.00576298 -1.46036e-11)
(-0.0905881 0.00609555 -1.79263e-11)
(-0.09469 0.00654767 -2.34904e-11)
(-0.0991475 0.00719153 -3.15376e-11)
(-0.104044 0.0081403 -4.86649e-11)
(-0.109493 0.00956676 -6.25598e-11)
(-0.11565 0.0117259 -9.37376e-11)
(-0.12272 0.0149789 -1.10658e-10)
(-0.130981 0.0198125 -1.46015e-10)
(-0.140824 0.0268371 -1.69268e-10)
(-0.152691 0.036714 -2.0568e-10)
(-0.166807 0.0500044 -2.522e-10)
(-0.183492 0.067784 -3.15053e-10)
(-0.203863 0.0937532 -3.90412e-10)
(-0.229946 0.13536 -3.9909e-10)
(-0.26456 0.197525 -4.09585e-10)
(-0.305273 0.263547 -9.71499e-11)
(-0.312617 0.327301 1.6832e-10)
(-0.279807 0.370742 4.87139e-10)
(-0.243279 0.397388 6.29085e-10)
(-0.211751 0.414157 7.23941e-10)
(-0.18426 0.425258 7.3674e-10)
(-0.159875 0.433074 6.63368e-10)
(-0.137908 0.438869 6.03583e-10)
(-0.117762 0.443319 5.01146e-10)
(-0.0989671 0.446804 4.4948e-10)
(-0.0811779 0.449553 3.76035e-10)
(-0.0641371 0.451709 3.49266e-10)
(-0.0476464 0.453363 3.10428e-10)
(-0.0315489 0.454567 2.95641e-10)
(-0.0157232 0.455329 2.77221e-10)
(-3.51164e-08 0.455599 2.59607e-10)
(0.0157231 0.455329 2.65113e-10)
(0.0315488 0.454567 7.7208e-11)
(0.0476463 0.453363 5.54571e-10)
(0.064137 0.451709 1.07161e-10)
(-0.00792979 0.00644254 -5.28995e-12)
(-0.0095295 0.00647018 -4.79387e-12)
(-0.0111368 0.00650276 -3.40903e-12)
(-0.012753 0.00654037 -3.47274e-12)
(-0.0143794 0.00658312 -3.55259e-12)
(-0.0160174 0.00663113 -3.67751e-12)
(-0.0176684 0.00668455 -3.82907e-12)
(-0.0193339 0.00674354 -3.98305e-12)
(-0.0210153 0.00680831 -4.15493e-12)
(-0.0227143 0.00687904 -4.31882e-12)
(-0.0244323 0.00695597 -4.50288e-12)
(-0.0261712 0.00703934 -4.6781e-12)
(-0.0279326 0.00712944 -4.87677e-12)
(-0.0297184 0.00722655 -5.06504e-12)
(-0.0315306 0.007331 -5.27838e-12)
(-0.0333711 0.00744316 -5.47941e-12)
(-0.0352421 0.00756342 -5.70513e-12)
(-0.0371459 0.00769219 -5.91725e-12)
(-0.039085 0.00782995 -6.15095e-12)
(-0.0410618 0.00797721 -6.37152e-12)
(-0.0430791 0.00813453 -6.60681e-12)
(-0.0451399 0.00830252 -6.83257e-12)
(-0.0472472 0.00848185 -7.06143e-12)
(-0.0494045 0.00867325 -7.28913e-12)
(-0.0516154 0.00887755 -7.50266e-12)
(-0.0538839 0.00909563 -7.73021e-12)
(-0.0562141 0.00932847 -7.9205e-12)
(-0.0586107 0.00957718 -8.14923e-12)
(-0.0610789 0.00984297 -8.31326e-12)
(-0.063624 0.0101272 -8.5521e-12)
(-0.0662523 0.0104314 -8.69895e-12)
(-0.0689705 0.0107574 -8.9707e-12)
(-0.0717859 0.011107 -9.131e-12)
(-0.0747068 0.0114827 -9.4775e-12)
(-0.0777425 0.0118871 -9.70726e-12)
(-0.0809033 0.0123234 -1.0183e-11)
(-0.0842009 0.0127954 -1.05408e-11)
(-0.0876484 0.013308 -1.11802e-11)
(-0.0912608 0.0138668 -1.16559e-11)
(-0.0950551 0.0144795 -1.24268e-11)
(-0.099051 0.0151557 -1.28635e-11)
(-0.103271 0.0159083 -1.37068e-11)
(-0.10774 0.016755 -1.39458e-11)
(-0.112489 0.0177199 -1.50779e-11)
(-0.117551 0.0188375 -1.5721e-11)
(-0.122966 0.0201574 -1.81358e-11)
(-0.128777 0.0217515 -2.17995e-11)
(-0.135035 0.0237251 -2.71803e-11)
(-0.141793 0.0262306 -3.83057e-11)
(-0.149109 0.0294854 -4.73992e-11)
(-0.157036 0.0337911 -6.7762e-11)
(-0.165622 0.0395496 -7.83711e-11)
(-0.174899 0.0472692 -1.01044e-10)
(-0.184882 0.0575529 -1.111e-10)
(-0.195526 0.0710826 -1.25616e-10)
(-0.206719 0.0886578 -1.34322e-10)
(-0.21828 0.111213 -1.36635e-10)
(-0.229585 0.139267 -1.41021e-10)
(-0.238982 0.171939 -1.15483e-10)
(-0.244616 0.20736 -9.43416e-11)
(-0.244779 0.242869 -1.46445e-11)
(-0.237054 0.276668 3.05626e-11)
(-0.222219 0.305864 1.08815e-10)
(-0.204241 0.330162 1.37747e-10)
(-0.185427 0.349519 1.68788e-10)
(-0.166665 0.364523 1.70225e-10)
(-0.148297 0.376084 1.59628e-10)
(-0.13043 0.385028 1.44679e-10)
(-0.113055 0.391992 1.22775e-10)
(-0.0961192 0.397441 1.09645e-10)
(-0.0795577 0.401702 9.19541e-11)
(-0.0633012 0.404999 8.54596e-11)
(-0.0472812 0.407482 7.39689e-11)
(-0.0314329 0.409241 7.11705e-11)
(-0.0157067 0.410314 6.21216e-11)
(8.74489e-08 0.410681 6.0315e-11)
(0.0157069 0.410314 5.47132e-11)
(0.0314331 0.409241 2.11957e-11)
(0.0472814 0.407482 1.01094e-10)
(0.0633014 0.404999 4.25251e-11)
(-0.00860774 0.010983 -3.14525e-12)
(-0.0103439 0.0110302 -3.52279e-12)
(-0.012088 0.0110861 -2.41156e-12)
(-0.0138417 0.0111508 -2.53599e-12)
(-0.0156062 0.0112245 -2.61207e-12)
(-0.0173832 0.0113074 -2.71393e-12)
(-0.019174 0.0113998 -2.83582e-12)
(-0.0209804 0.0115021 -2.95081e-12)
(-0.0228038 0.0116144 -3.08971e-12)
(-0.0246459 0.0117373 -3.21119e-12)
(-0.0265086 0.011871 -3.36139e-12)
(-0.0283935 0.0120161 -3.49104e-12)
(-0.0303026 0.0121731 -3.65404e-12)
(-0.0322379 0.0123425 -3.79299e-12)
(-0.0342014 0.012525 -3.96838e-12)
(-0.0361953 0.0127211 -4.11616e-12)
(-0.038222 0.0129317 -4.30169e-12)
(-0.0402838 0.0131575 -4.45666e-12)
(-0.0423835 0.0133995 -4.64825e-12)
(-0.0445236 0.0136586 -4.80787e-12)
(-0.0467072 0.013936 -4.99955e-12)
(-0.0489374 0.0142327 -5.16048e-12)
(-0.0512176 0.0145502 -5.34455e-12)
(-0.0535513 0.0148898 -5.50298e-12)
(-0.0559425 0.0152533 -5.67052e-12)
(-0.0583954 0.0156424 -5.82294e-12)
(-0.0609145 0.0160592 -5.96525e-12)
(-0.0635047 0.0165059 -6.10998e-12)
(-0.0661715 0.0169851 -6.22158e-12)
(-0.0689207 0.0174996 -6.36179e-12)
(-0.0717587 0.0180527 -6.44594e-12)
(-0.0746926 0.0186481 -6.59434e-12)
(-0.0777301 0.01929 -6.67072e-12)
(-0.0808799 0.0199833 -6.85383e-12)
(-0.0841514 0.0207338 -6.96288e-12)
(-0.0875552 0.021548 -7.21793e-12)
(-0.0911029 0.0224338 -7.407e-12)
(-0.0948077 0.0234005 -7.75998e-12)
(-0.0986841 0.0244591 -8.03386e-12)
(-0.102748 0.0256233 -8.46272e-12)
(-0.107018 0.0269093 -8.72071e-12)
(-0.111514 0.0283378 -9.16269e-12)
(-0.116258 0.0299341 -9.26506e-12)
(-0.121274 0.031731 -9.78202e-12)
(-0.126588 0.0337704 -1.00044e-11)
(-0.132226 0.0361074 -1.1098e-11)
(-0.138213 0.0388153 -1.29317e-11)
(-0.144574 0.0419922 -1.55915e-11)
(-0.151323 0.0457701 -2.17471e-11)
(-0.15846 0.0503249 -2.6636e-11)
(-0.165964 0.0558877 -3.84613e-11)
(-0.173777 0.0627529 -4.45949e-11)
(-0.181787 0.071281 -5.80565e-11)
(-0.189821 0.0818919 -6.29446e-11)
(-0.197623 0.0950475 -6.9675e-11)
(-0.204833 0.111196 -7.07633e-11)
(-0.210935 0.130603 -6.41392e-11)
(-0.215259 0.15308 -5.89919e-11)
(-0.217079 0.177866 -3.94948e-11)
(-0.215781 0.20376 -2.90502e-11)
(-0.211117 0.229348 -2.83501e-12)
(-0.203204 0.253473 8.59816e-12)
(-0.192561 0.275177 2.92834e-11)
(-0.17991 0.294079 3.45008e-11)
(-0.165909 0.310105 4.27829e-11)
(-0.151105 0.323417 4.09509e-11)
(-0.1359 0.33434 3.94527e-11)
(-0.120546 0.343246 3.44429e-11)
(-0.105189 0.350478 2.96636e-11)
(-0.0899033 0.35632 2.53209e-11)
(-0.0747192 0.360995 2.10374e-11)
(-0.0596403 0.364665 1.84286e-11)
(-0.0446529 0.367446 1.49315e-11)
(-0.0297356 0.369411 1.303e-11)
(-0.0148732 0.370594 9.27037e-12)
(1.15662e-07 0.370993 7.68734e-12)
(0.0148734 0.370594 3.20236e-12)
(0.0297359 0.369411 2.88582e-13)
(0.0446531 0.367446 1.69461e-12)
(0.0596405 0.364665 7.57791e-12)
(-0.00870806 0.0156775 -4.53396e-12)
(-0.0104638 0.0157444 -3.86092e-12)
(-0.0122274 0.0158237 -2.80787e-12)
(-0.0140001 0.0159156 -2.84e-12)
(-0.0157835 0.0160204 -2.90354e-12)
(-0.0175788 0.0161385 -2.99507e-12)
(-0.0193877 0.0162701 -3.11148e-12)
(-0.0212115 0.0164158 -3.22804e-12)
(-0.0230519 0.016576 -3.36136e-12)
(-0.0249104 0.0167513 -3.48808e-12)
(-0.0267888 0.0169422 -3.63318e-12)
(-0.0286887 0.0171493 -3.77054e-12)
(-0.030612 0.0173735 -3.92897e-12)
(-0.0325605 0.0176155 -4.07762e-12)
(-0.0345363 0.0178763 -4.24916e-12)
(-0.0365413 0.0181566 -4.40866e-12)
(-0.0385779 0.0184578 -4.59171e-12)
(-0.0406482 0.0187808 -4.76096e-12)
(-0.0427548 0.0191271 -4.95255e-12)
(-0.0449002 0.0194981 -5.12983e-12)
(-0.0470871 0.0198953 -5.32563e-12)
(-0.0493184 0.0203205 -5.50872e-12)
(-0.0515972 0.0207756 -5.70317e-12)
(-0.0539269 0.0212627 -5.88974e-12)
(-0.056311 0.0217843 -6.07658e-12)
(-0.0587532 0.022343 -6.2649e-12)
(-0.0612577 0.0229417 -6.43842e-12)
(-0.0638289 0.0235837 -6.62869e-12)
(-0.0664714 0.0242727 -6.78615e-12)
(-0.0691905 0.025013 -6.98292e-12)
(-0.0719915 0.0258091 -7.12875e-12)
(-0.0748806 0.0266664 -7.34442e-12)
(-0.0778641 0.0275909 -7.49619e-12)
(-0.0809492 0.0285896 -7.75484e-12)
(-0.0841435 0.0296703 -7.94803e-12)
(-0.0874552 0.0308421 -8.28536e-12)
(-0.0908934 0.0321157 -8.56864e-12)
(-0.0944677 0.0335031 -9.02119e-12)
(-0.0981886 0.0350187 -9.43104e-12)
(-0.102067 0.0366792 -1.00147e-11)
(-0.106116 0.0385046 -1.05373e-11)
(-0.110346 0.0405182 -1.12422e-11)
(-0.114771 0.0427482 -1.18321e-11)
(-0.119403 0.0452284 -1.26908e-11)
(-0.124255 0.0479999 -1.34726e-11)
(-0.129335 0.0511129 -1.47041e-11)
(-0.134651 0.0546291 -1.63444e-11)
(-0.140203 0.0586253 -1.83813e-11)
(-0.14598 0.0631969 -2.20881e-11)
(-0.151958 0.0684616 -2.51892e-11)
(-0.158086 0.0745638 -3.14916e-11)
(-0.164285 0.081675 -3.50392e-11)
(-0.170428 0.0899919 -4.18355e-11)
(-0.176335 0.099727 -4.41194e-11)
(-0.18176 0.11109 -4.67703e-11)
(-0.186379 0.124253 -4.57994e-11)
(-0.189798 0.139293 -4.08527e-11)
(-0.191589 0.156089 -3.59504e-11)
(-0.191381 0.174249 -2.45154e-11)
(-0.188933 0.193131 -1.71194e-11)
(-0.184209 0.211971 -4.43592e-12)
(-0.177355 0.230076 2.11912e-12)
(-0.168646 0.246905 1.08506e-11)
(-0.158423 0.26212 1.41602e-11)
(-0.147034 0.275557 1.74282e-11)
(-0.134803 0.287199 1.75926e-11)
(-0.121998 0.297144 1.71349e-11)
(-0.108821 0.305549 1.57471e-11)
(-0.0954181 0.312583 1.3945e-11)
(-0.0818841 0.318406 1.24438e-11)
(-0.0682804 0.323152 1.06219e-11)
(-0.054643 0.326926 9.3503e-12)
(-0.0409905 0.329806 7.46127e-12)
(-0.0273322 0.331844 6.05689e-12)
(-0.0136798 0.333065 3.55957e-12)
(9.88945e-08 0.333475 2.02796e-12)
(0.01368 0.333065 -4.87074e-13)
(0.0273324 0.331844 -4.4261e-12)
(0.0409907 0.329806 2.77804e-12)
(0.0546432 0.326926 -8.05861e-12)
(-0.00858666 0.0203322 -1.76844e-12)
(-0.0103171 0.0204175 -2.06625e-12)
(-0.0120547 0.0205187 -1.39623e-12)
(-0.0138008 0.0206361 -1.49756e-12)
(-0.0155567 0.0207701 -1.55279e-12)
(-0.0173236 0.0209211 -1.61932e-12)
(-0.0191029 0.0210895 -1.69612e-12)
(-0.020896 0.0212758 -1.76709e-12)
(-0.0227043 0.0214808 -1.85477e-12)
(-0.0245293 0.0217049 -1.92999e-12)
(-0.0263724 0.0219491 -2.02627e-12)
(-0.0282352 0.022214 -2.10722e-12)
(-0.0301193 0.0225007 -2.21305e-12)
(-0.0320263 0.0228101 -2.3003e-12)
(-0.0339582 0.0231434 -2.41545e-12)
(-0.0359165 0.0235017 -2.50873e-12)
(-0.0379034 0.0238864 -2.632e-12)
(-0.0399206 0.0242989 -2.7305e-12)
(-0.0419704 0.024741 -2.85955e-12)
(-0.0440549 0.0252144 -2.96184e-12)
(-0.0461765 0.025721 -3.09302e-12)
(-0.0483375 0.026263 -3.19698e-12)
(-0.0505405 0.0268428 -3.32526e-12)
(-0.0527882 0.0274631 -3.42822e-12)
(-0.0550835 0.0281268 -3.54752e-12)
(-0.0574294 0.0288371 -3.64649e-12)
(-0.0598291 0.0295977 -3.75044e-12)
(-0.0622859 0.0304124 -3.8429e-12)
(-0.0648035 0.0312859 -3.92634e-12)
(-0.0673856 0.032223 -4.01154e-12)
(-0.0700363 0.0332294 -4.07329e-12)
(-0.0727597 0.0343113 -4.15423e-12)
(-0.0755603 0.0354758 -4.20105e-12)
(-0.0784427 0.0367308 -4.28686e-12)
(-0.0814119 0.0380853 -4.33697e-12)
(-0.0844728 0.0395494 -4.44329e-12)
(-0.0876306 0.0411347 -4.52502e-12)
(-0.0908906 0.0428545 -4.66842e-12)
(-0.094258 0.0447236 -4.80728e-12)
(-0.0977378 0.0467594 -4.99193e-12)
(-0.101335 0.0489815 -5.18785e-12)
(-0.105053 0.0514125 -5.39511e-12)
(-0.108896 0.0540786 -5.62062e-12)
(-0.112865 0.0570098 -5.8285e-12)
(-0.116958 0.060241 -6.10802e-12)
(-0.121174 0.0638123 -6.35258e-12)
(-0.125501 0.0677707 -6.92421e-12)
(-0.129926 0.0721703 -7.33874e-12)
(-0.134424 0.0770739 -8.67957e-12)
(-0.138958 0.0825538 -9.38824e-12)
(-0.143474 0.0886917 -1.17457e-11)
(-0.147896 0.0955774 -1.26051e-11)
(-0.152122 0.103306 -1.51927e-11)
(-0.156017 0.111968 -1.56428e-11)
(-0.159409 0.12164 -1.65932e-11)
(-0.16209 0.132364 -1.59136e-11)
(-0.163824 0.144121 -1.37113e-11)
(-0.164365 0.156804 -1.1663e-11)
(-0.163498 0.170197 -6.78344e-12)
(-0.161079 0.183991 -4.08285e-12)
(-0.157062 0.197815 1.20773e-12)
(-0.151504 0.211299 3.3316e-12)
(-0.144541 0.224114 6.86035e-12)
(-0.13636 0.236015 7.6212e-12)
(-0.12717 0.246844 8.77954e-12)
(-0.117175 0.256527 8.31853e-12)
(-0.10656 0.265056 7.87086e-12)
(-0.0954803 0.27247 6.91502e-12)
(-0.0840587 0.278831 5.93392e-12)
(-0.0723886 0.284205 5.04008e-12)
(-0.0605396 0.288656 4.05181e-12)
(-0.0485625 0.292239 3.34388e-12)
(-0.0364941 0.294994 2.31108e-12)
(-0.0243638 0.29695 1.59716e-12)
(-0.0122015 0.298121 2.86693e-13)
(7.11521e-08 0.298513 -5.03203e-13)
(0.0122016 0.298121 -1.98348e-12)
(0.0243639 0.29695 -2.99268e-12)
(0.0364943 0.294994 -2.12655e-12)
(0.0485626 0.292239 -3.70872e-12)
(-0.0083752 0.0248893 -2.69211e-12)
(-0.0100619 0.0249914 -2.01758e-12)
(-0.011755 0.0251125 -1.52262e-12)
(-0.0134557 0.025253 -1.5332e-12)
(-0.015165 0.0254133 -1.57901e-12)
(-0.0168841 0.0255939 -1.63607e-12)
(-0.0186142 0.0257954 -1.70586e-12)
(-0.0203564 0.0260183 -1.77688e-12)
(-0.0221121 0.0262634 -1.85506e-12)
(-0.0238823 0.0265314 -1.93208e-12)
(-0.0256686 0.0268231 -2.0174e-12)
(-0.027472 0.0271396 -2.10075e-12)
(-0.0292941 0.0274819 -2.19443e-12)
(-0.0311361 0.0278511 -2.28446e-12)
(-0.0329997 0.0282486 -2.38664e-12)
(-0.0348861 0.0286756 -2.48326e-12)
(-0.0367971 0.0291337 -2.59336e-12)
(-0.0387341 0.0296246 -2.69613e-12)
(-0.0406989 0.0301502 -2.81272e-12)
(-0.0426931 0.0307124 -2.92069e-12)
(-0.0447186 0.0313135 -3.04137e-12)
(-0.0467772 0.0319558 -3.15307e-12)
(-0.0488707 0.0326421 -3.27443e-12)
(-0.0510012 0.0333753 -3.38794e-12)
(-0.0531708 0.0341585 -3.5059e-12)
(-0.0553814 0.0349954 -3.61922e-12)
(-0.0576354 0.0358899 -3.72963e-12)
(-0.0599349 0.0368462 -3.8413e-12)
(-0.0622822 0.0378692 -3.94115e-12)
(-0.0646797 0.0389641 -4.05114e-12)
(-0.0671296 0.0401368 -4.14036e-12)
(-0.0696344 0.0413938 -4.25151e-12)
(-0.0721962 0.0427422 -4.33541e-12)
(-0.0748175 0.0441901 -4.45491e-12)
(-0.0775002 0.0457465 -4.54658e-12)
(-0.0802463 0.0474212 -4.68647e-12)
(-0.0830574 0.0492255 -4.80651e-12)
(-0.0859348 0.0511715 -4.98091e-12)
(-0.0888791 0.0532732 -5.15108e-12)
(-0.0918902 0.0555461 -5.3685e-12)
(-0.0949671 0.0580072 -5.59841e-12)
(-0.0981075 0.0606759 -5.85232e-12)
(-0.101307 0.0635734 -6.12984e-12)
(-0.104561 0.0667236 -6.39889e-12)
(-0.107859 0.0701527 -6.70758e-12)
(-0.111189 0.0738898 -6.97415e-12)
(-0.114534 0.0779669 -7.3433e-12)
(-0.117872 0.0824189 -7.61381e-12)
(-0.121174 0.0872833 -8.13267e-12)
(-0.124401 0.0926003 -8.4163e-12)
(-0.127504 0.0984113 -9.09634e-12)
(-0.13042 0.104758 -9.32473e-12)
(-0.133072 0.111678 -9.85491e-12)
(-0.135366 0.119202 -9.82586e-12)
(-0.137191 0.127347 -9.57846e-12)
(-0.138421 0.136107 -9.0415e-12)
(-0.138922 0.145442 -7.56241e-12)
(-0.138559 0.15527 -6.45432e-12)
(-0.137217 0.165463 -4.01488e-12)
(-0.134812 0.175849 -2.62411e-12)
(-0.131307 0.186232 -1.3949e-13)
(-0.126716 0.19641 1.03982e-12)
(-0.121098 0.206193 2.69678e-12)
(-0.114547 0.215427 3.3399e-12)
(-0.107177 0.223994 3.91912e-12)
(-0.0991101 0.231818 4.05129e-12)
(-0.0904649 0.238861 3.8469e-12)
(-0.0813488 0.245108 3.70097e-12)
(-0.0718552 0.250566 3.19488e-12)
(-0.0620625 0.25525 3.02524e-12)
(-0.0520356 0.25918 2.44185e-12)
(-0.0418279 0.262372 2.26709e-12)
(-0.0314839 0.264844 1.67099e-12)
(-0.0210427 0.266605 1.38586e-12)
(-0.0105443 0.267662 7.25273e-13)
(4.83395e-08 0.268015 3.46722e-13)
(0.0105444 0.267662 -6.65686e-13)
(0.0210428 0.266605 8.69342e-14)
(0.031484 0.264844 -3.21824e-12)
(0.041828 0.262372 1.41606e-12)
(-0.00811483 0.0293141 1.60873e-13)
(-0.00974782 0.0294307 -1.6454e-13)
(-0.0113863 0.0295691 -7.4078e-14)
(-0.0130312 0.0297297 -1.49203e-13)
(-0.0146836 0.0299129 -1.84145e-13)
(-0.0163443 0.0301193 -2.1428e-13)
(-0.0180143 0.0303494 -2.43474e-13)
(-0.0196947 0.0306039 -2.67326e-13)
(-0.0213864 0.0308836 -2.99297e-13)
(-0.0230904 0.0311893 -3.23319e-13)
(-0.0248079 0.0315219 -3.59326e-13)
(-0.0265399 0.0318824 -3.84878e-13)
(-0.0282874 0.0322721 -4.25548e-13)
(-0.0300515 0.032692 -4.53036e-13)
(-0.0318334 0.0331436 -4.98555e-13)
(-0.0336342 0.0336284 -5.28087e-13)
(-0.0354551 0.034148 -5.78232e-13)
(-0.0372972 0.0347041 -6.09632e-13)
(-0.0391617 0.0352987 -6.63513e-13)
(-0.0410499 0.0359339 -6.96114e-13)
(-0.0429629 0.036612 -7.51914e-13)
(-0.0449021 0.0373355 -7.84389e-13)
(-0.0468686 0.0381072 -8.39217e-13)
(-0.0488638 0.0389301 -8.69478e-13)
(-0.0508887 0.0398075 -9.19463e-13)
(-0.0529447 0.0407428 -9.4474e-13)
(-0.055033 0.0417402 -9.85387e-13)
(-0.0571546 0.0428038 -1.00255e-12)
(-0.0593106 0.0439384 -1.02938e-12)
(-0.0615019 0.045149 -1.03517e-12)
(-0.0637295 0.0464414 -1.04466e-12)
(-0.065994 0.0478216 -1.03642e-12)
(-0.0682957 0.0492966 -1.02749e-12)
(-0.070635 0.0508735 -1.00408e-12)
(-0.0730117 0.0525607 -9.79677e-13)
(-0.0754251 0.0543669 -9.41898e-13)
(-0.0778741 0.0563018 -9.09139e-13)
(-0.080357 0.0583762 -8.58776e-13)
(-0.0828712 0.0606016 -8.26294e-13)
(-0.085413 0.0629906 -7.62934e-13)
(-0.0879778 0.0655568 -7.34229e-13)
(-0.0905591 0.0683153 -6.50183e-13)
(-0.0931491 0.0712818 -6.15968e-13)
(-0.0957375 0.0744736 -4.94035e-13)
(-0.0983117 0.0779087 -4.34253e-13)
(-0.100856 0.0816064 -2.55276e-13)
(-0.103351 0.0855864 -1.56037e-13)
(-0.105773 0.0898692 9.44548e-14)
(-0.108093 0.094475 2.38457e-13)
(-0.110278 0.0994234 5.45065e-13)
(-0.112287 0.104732 7.26272e-13)
(-0.114071 0.110417 1.08649e-12)
(-0.115575 0.116487 1.37943e-12)
(-0.116736 0.122945 1.79496e-12)
(-0.117483 0.129782 2.33299e-12)
(-0.117742 0.136978 2.79979e-12)
(-0.117434 0.144492 3.64635e-12)
(-0.116488 0.152264 4.13347e-12)
(-0.114839 0.160213 5.15736e-12)
(-0.112443 0.168239 5.55142e-12)
(-0.109277 0.176229 6.44942e-12)
(-0.105343 0.184067 6.62448e-12)
(-0.100669 0.191642 7.13543e-12)
(-0.0953 0.198856 7.05599e-12)
(-0.089299 0.205627 7.13751e-12)
(-0.0827352 0.211893 6.88466e-12)
(-0.075681 0.21761 6.67388e-12)
(-0.0682065 0.22275 6.38658e-12)
(-0.0603776 0.227295 6.07973e-12)
(-0.0522542 0.231239 5.87754e-12)
(-0.04389 0.234577 5.62299e-12)
(-0.035333 0.237309 5.55473e-12)
(-0.0266266 0.239435 5.40842e-12)
(-0.0178112 0.240956 5.44023e-12)
(-0.0089286 0.241869 5.36134e-12)
(3.2297e-08 0.242175 5.34433e-12)
(0.00892866 0.241869 5.8196e-12)
(0.0178113 0.240956 1.84803e-12)
(0.0266266 0.239435 1.42652e-11)
(0.0353331 0.237309 2.83076e-13)
(-0.00781956 0.0335862 -7.78871e-13)
(-0.00939172 0.0337151 -2.27204e-13)
(-0.0109684 0.033868 -2.64438e-13)
(-0.0125504 0.0340454 -2.51255e-13)
(-0.0141384 0.0342478 -2.7417e-13)
(-0.0157332 0.0344756 -2.93273e-13)
(-0.0173357 0.0347296 -3.15613e-13)
(-0.0189465 0.0350103 -3.39191e-13)
(-0.0205665 0.0353185 -3.62962e-13)
(-0.0221965 0.0356552 -3.89257e-13)
(-0.0238372 0.0360213 -4.16165e-13)
(-0.0254895 0.0364179 -4.45283e-13)
(-0.0271541 0.036846 -4.76163e-13)
(-0.0288318 0.0373069 -5.08115e-13)
(-0.0305234 0.0378021 -5.43268e-13)
(-0.0322297 0.038333 -5.78141e-13)
(-0.0339515 0.0389012 -6.17716e-13)
(-0.0356896 0.0395086 -6.55425e-13)
(-0.0374447 0.040157 -6.98948e-13)
(-0.0392175 0.0408486 -7.39037e-13)
(-0.0410087 0.0415856 -7.85598e-13)
(-0.0428191 0.0423705 -8.27165e-13)
(-0.0446492 0.043206 -8.74691e-13)
(-0.0464995 0.044095 -9.15794e-13)
(-0.0483707 0.0450405 -9.61279e-13)
(-0.0502631 0.0460461 -9.99397e-13)
(-0.052177 0.0471154 -1.03953e-12)
(-0.0541126 0.0482524 -1.07261e-12)
(-0.0560699 0.0494615 -1.10443e-12)
(-0.0580488 0.0507472 -1.12966e-12)
(-0.0600489 0.0521148 -1.14929e-12)
(-0.0620695 0.0535696 -1.16311e-12)
(-0.0641097 0.0551176 -1.16769e-12)
(-0.0661681 0.0567652 -1.1683e-12)
(-0.0682429 0.0585192 -1.15771e-12)
(-0.0703318 0.060387 -1.14433e-12)
(-0.0724318 0.0623766 -1.11957e-12)
(-0.0745393 0.0644964 -1.09125e-12)
(-0.0766496 0.0667554 -1.05338e-12)
(-0.0787573 0.0691633 -1.0084e-12)
(-0.0808554 0.07173 -9.56e-13)
(-0.082936 0.0744663 -8.90187e-13)
(-0.0849893 0.0773831 -8.10114e-13)
(-0.0870038 0.0804917 -7.00959e-13)
(-0.088966 0.0838036 -5.71417e-13)
(-0.0908599 0.0873301 -4.1835e-13)
(-0.092667 0.0910824 -2.2912e-13)
(-0.0943658 0.0950707 -1.37372e-14)
(-0.0959317 0.0993044 2.70111e-13)
(-0.0973367 0.103791 5.52059e-13)
(-0.0985488 0.108535 9.37451e-13)
(-0.0995328 0.113539 1.26683e-12)
(-0.10025 0.118799 1.73565e-12)
(-0.100657 0.124308 2.17538e-12)
(-0.100711 0.130048 2.79733e-12)
(-0.100365 0.135997 3.1041e-12)
(-0.0995756 0.142119 3.73814e-12)
(-0.0983018 0.148372 4.093e-12)
(-0.0965093 0.154699 4.72779e-12)
(-0.0941737 0.161039 4.96701e-12)
(-0.0912823 0.167322 5.44233e-12)
(-0.0878358 0.173477 5.55634e-12)
(-0.0838478 0.179435 5.80426e-12)
(-0.0793436 0.185133 5.80375e-12)
(-0.0743576 0.190513 5.83471e-12)
(-0.0689305 0.195529 5.77086e-12)
(-0.0631068 0.200142 5.66019e-12)
(-0.0569324 0.204323 5.59889e-12)
(-0.0504526 0.208049 5.44293e-12)
(-0.0437116 0.211304 5.43869e-12)
(-0.0367513 0.214076 5.32159e-12)
(-0.0296117 0.216356 5.40307e-12)
(-0.0223306 0.218137 5.37336e-12)
(-0.0149451 0.219414 5.50105e-12)
(-0.00749346 0.220182 5.58866e-12)
(2.27139e-08 0.220439 5.66755e-12)
(0.00749351 0.220182 5.9324e-12)
(0.0149451 0.219414 4.10776e-12)
(0.0223307 0.218137 9.87716e-12)
(0.0296117 0.216356 6.50787e-12)
(-0.00749695 0.0376889 1.61357e-12)
(-0.00900278 0.0378276 1.31463e-12)
(-0.0105121 0.0379922 9.46201e-13)
(-0.0120256 0.038183 9.05534e-13)
(-0.0135437 0.0384006 8.9288e-13)
(-0.0150671 0.0386454 8.97333e-13)
(-0.0165963 0.0389181 9.09481e-13)
(-0.018132 0.0392195 9.26441e-13)
(-0.0196746 0.0395501 9.41658e-13)
(-0.0212247 0.039911 9.60765e-13)
(-0.022783 0.0403031 9.75107e-13)
(-0.0243498 0.0407273 9.95119e-13)
(-0.0259258 0.0411848 1.00827e-12)
(-0.0275114 0.0416769 1.02892e-12)
(-0.0291071 0.0422048 1.04042e-12)
(-0.0307133 0.0427701 1.06149e-12)
(-0.0323306 0.0433742 1.07107e-12)
(-0.0339592 0.044019 1.09261e-12)
(-0.0355996 0.0447062 1.10041e-12)
(-0.037252 0.0454379 1.12203e-12)
(-0.0389167 0.0462161 1.12763e-12)
(-0.0405938 0.0470431 1.1494e-12)
(-0.0422834 0.0479216 1.15434e-12)
(-0.0439855 0.048854 1.17845e-12)
(-0.0457001 0.0498433 1.18701e-12)
(-0.0474268 0.0508926 1.21845e-12)
(-0.0491652 0.0520052 1.2331e-12)
(-0.0509149 0.0531845 1.26809e-12)
(-0.052675 0.0544345 1.28548e-12)
(-0.0544445 0.0557591 1.32424e-12)
(-0.0562222 0.0571626 1.35187e-12)
(-0.0580064 0.0586498 1.40902e-12)
(-0.0597952 0.0602254 1.45856e-12)
(-0.0615863 0.0618947 1.53587e-12)
(-0.0633768 0.0636631 1.60672e-12)
(-0.0651634 0.0655365 1.70434e-12)
(-0.066942 0.0675209 1.79301e-12)
(-0.0687079 0.0696227 1.90989e-12)
(-0.0704558 0.0718485 2.02032e-12)
(-0.072179 0.074205 2.16122e-12)
(-0.0738703 0.0766991 2.29663e-12)
(-0.0755211 0.0793379 2.46396e-12)
(-0.0771215 0.0821284 2.62982e-12)
(-0.0786603 0.0850772 2.82703e-12)
(-0.0801248 0.0881908 3.03227e-12)
(-0.0815006 0.0914751 3.26172e-12)
(-0.0827715 0.0949353 3.51693e-12)
(-0.0839195 0.0985754 3.77927e-12)
(-0.0849245 0.102398 4.09372e-12)
(-0.0857646 0.106404 4.38275e-12)
(-0.0864159 0.110591 4.75627e-12)
(-0.086853 0.114955 5.05614e-12)
(-0.0870487 0.119488 5.47493e-12)
(-0.086975 0.124178 5.76383e-12)
(-0.0866036 0.129008 6.20345e-12)
(-0.0859064 0.133957 6.44205e-12)
(-0.0848574 0.138997 6.85477e-12)
(-0.0834333 0.144094 7.02497e-12)
(-0.0816152 0.149212 7.36377e-12)
(-0.0793899 0.154307 7.44179e-12)
(-0.0767511 0.159335 7.6628e-12)
(-0.0736997 0.164249 7.65058e-12)
(-0.070244 0.169004 7.74209e-12)
(-0.0663991 0.173557 7.66406e-12)
(-0.0621857 0.177867 7.65025e-12)
(-0.0576294 0.181899 7.54694e-12)
(-0.0527587 0.185623 7.47591e-12)
(-0.0476044 0.189014 7.39004e-12)
(-0.0421986 0.192048 7.3165e-12)
(-0.0365735 0.194711 7.28179e-12)
(-0.0307613 0.196986 7.25674e-12)
(-0.0247941 0.198863 7.29354e-12)
(-0.0187032 0.200332 7.33365e-12)
(-0.0125202 0.201388 7.41757e-12)
(-0.00627802 0.202024 7.50327e-12)
(1.58351e-08 0.202236 7.52712e-12)
(0.00627805 0.202024 8.22867e-12)
(0.0125202 0.201388 3.74016e-12)
(0.0187033 0.200332 1.77226e-11)
(0.0247941 0.198863 3.96518e-12)
(-0.00715326 0.0416094 7.96182e-13)
(-0.00858857 0.0417555 1.15335e-12)
(-0.0100264 0.0419287 7.21639e-13)
(-0.0114672 0.0421296 7.5118e-13)
(-0.0129113 0.0423585 7.49927e-13)
(-0.0143591 0.0426159 7.62578e-13)
(-0.0158111 0.0429025 7.80206e-13)
(-0.0172675 0.0432189 7.96104e-13)
(-0.0187288 0.0435658 8.17125e-13)
(-0.0201953 0.0439441 8.32868e-13)
(-0.0216672 0.0443547 8.53564e-13)
(-0.023145 0.0447985 8.69046e-13)
(-0.0246288 0.0452767 8.88862e-13)
(-0.0261189 0.0457903 9.0405e-13)
(-0.0276155 0.0463406 9.22505e-13)
(-0.0291187 0.0469289 9.37102e-13)
(-0.0306287 0.0475568 9.53633e-13)
(-0.0321456 0.0482258 9.67392e-13)
(-0.0336692 0.0489376 9.81897e-13)
(-0.0351996 0.0496939 9.94909e-13)
(-0.0367367 0.0504968 1.00748e-12)
(-0.03828 0.0513483 1.0202e-12)
(-0.0398295 0.0522505 1.03198e-12)
(-0.0413844 0.0532059 1.04587e-12)
(-0.0429443 0.054217 1.05884e-12)
(-0.0445085 0.0552863 1.07602e-12)
(-0.0460759 0.0564168 1.09253e-12)
(-0.0476455 0.0576115 1.11474e-12)
(-0.049216 0.0588734 1.13716e-12)
(-0.0507857 0.0602061 1.16725e-12)