/*--------------------------------*- C++ -*----------------------------------*\
| =========                 |                                                 |
| \\      /  F ield         | OpenFOAM: The Open Source CFD Toolbox           |
|  \\    /   O peration     | Version:  2306                                  |
|   \\  /    A nd           | Website:  www.openfoam.com                      |
|    \\/     M anipulation  |                                                 |
\*---------------------------------------------------------------------------*/
FoamFile
{
    version     2.0;
    format      ascii;
    arch        "LSB;label=32;scalar=64";
    class       volScalarField;
    location    "75";
    object      p_rgh;
}
// * * * * * * * * * * * * * * * * * * * * * * * * * * * * * * * * * * * * * //

dimensions      [1 -1 -2 0 0 0 0];

internalField   nonuniform List<scalar> 
14400
(
-0.00293978
-0.00315985
-0.00342435
-0.00373409
-0.00408872
-0.0044866
-0.00491842
-0.00532009
-0.00551768
-0.0057837
-0.00739591
-0.0097641
-0.0244114
-0.0382105
-0.0447003
-0.0440371
-0.0405314
-0.0369889
-0.0339055
-0.0311729
-0.028731
-0.0265581
-0.0246308
-0.0229229
-0.0214082
-0.0200623
-0.0188632
-0.0177915
-0.0168304
-0.0159653
-0.0151841
-0.0144761
-0.0138325
-0.0132456
-0.012709
-0.012217
-0.0117649
-0.0113486
-0.0109644
-0.0106092
-0.0102804
-0.00997547
-0.00969237
-0.00942922
-0.00918438
-0.00895637
-0.00874389
-0.00854576
-0.00836094
-0.00818848
-0.00802754
-0.00787735
-0.00773721
-0.00760652
-0.00748468
-0.00737121
-0.00726562
-0.00716751
-0.00707648
-0.00699219
-0.00691433
-0.00684262
-0.00677679
-0.00671662
-0.00666191
-0.00661246
-0.00656812
-0.00652874
-0.0064942
-0.00646441
-0.00643927
-0.00641872
-0.00640271
-0.00639123
-0.00638426
-0.00638188
-0.00638415
-0.00639101
-0.00640239
-0.00641829
-0.00308103
-0.00334189
-0.00366899
-0.00407515
-0.00457908
-0.00520873
-0.00600487
-0.00701825
-0.00832522
-0.0102095
-0.013114
-0.01482
-0.0170939
-0.0208963
-0.0257879
-0.0297528
-0.0308476
-0.029739
-0.0279871
-0.0262558
-0.0246278
-0.0230994
-0.0216796
-0.0203739
-0.01918
-0.0180921
-0.017102
-0.0162014
-0.0153816
-0.0146346
-0.0139531
-0.0133301
-0.0127598
-0.0122366
-0.0117559
-0.0113134
-0.0109054
-0.0105286
-0.0101801
-0.00985729
-0.00955789
-0.00927988
-0.00902145
-0.00878097
-0.00855702
-0.00834831
-0.00815367
-0.00797207
-0.00780257
-0.00764433
-0.00749659
-0.00735867
-0.00722993
-0.00710982
-0.00699782
-0.00689348
-0.00679637
-0.0067061
-0.00662234
-0.00654476
-0.00647309
-0.00640706
-0.00634645
-0.00629103
-0.00624063
-0.00619508
-0.00615422
-0.00611793
-0.00608609
-0.00605861
-0.00603541
-0.00601641
-0.00600157
-0.00599084
-0.00598418
-0.00598184
-0.00598407
-0.00599063
-0.00600125
-0.00601599
-0.00340874
-0.00362735
-0.00389533
-0.00421916
-0.00460883
-0.00508046
-0.00566081
-0.00639665
-0.00738521
-0.00883403
-0.0109554
-0.0135869
-0.0170409
-0.020636
-0.0234124
-0.0249101
-0.0250956
-0.0243564
-0.0232283
-0.0220337
-0.0208663
-0.0197452
-0.0186831
-0.0176888
-0.0167654
-0.0159122
-0.0151259
-0.0144024
-0.013737
-0.0131249
-0.0125615
-0.0120424
-0.0115637
-0.0111216
-0.0107129
-0.0103345
-0.00998391
-0.00965857
-0.00935635
-0.00907533
-0.00881375
-0.00857005
-0.00834282
-0.0081308
-0.00793284
-0.00774791
-0.00757507
-0.00741349
-0.0072624
-0.0071211
-0.00698896
-0.00686542
-0.00674995
-0.00664208
-0.00654137
-0.00644745
-0.00635994
-0.00627853
-0.00620291
-0.00613282
-0.00606801
-0.00600826
-0.00595337
-0.00590315
-0.00585745
-0.00581611
-0.00577901
-0.00574603
-0.00571707
-0.00569204
-0.00567086
-0.00565348
-0.00563983
-0.00562985
-0.00562348
-0.00562116
-0.00562337
-0.00562964
-0.00563952
-0.00565307
-0.00612517
-0.00643013
-0.00680857
-0.00727064
-0.00782979
-0.0085034
-0.00931254
-0.0102763
-0.011396
-0.0126547
-0.0140606
-0.0156287
-0.0173036
-0.0186938
-0.0194498
-0.0195119
-0.01909
-0.0184497
-0.0177483
-0.0170398
-0.0163398
-0.0156563
-0.0149966
-0.0143657
-0.0137668
-0.0132009
-0.0126681
-0.0121678
-0.0116986
-0.0112593
-0.010848
-0.0104632
-0.0101033
-0.00976656
-0.00945151
-0.00915669
-0.0088807
-0.00862228
-0.00838021
-0.00815338
-0.00794075
-0.00774139
-0.00755439
-0.00737895
-0.00721433
-0.00705982
-0.00691481
-0.00677869
-0.00665095
-0.00653108
-0.00641864
-0.0063132
-0.00621438
-0.00612183
-0.00603524
-0.00595429
-0.00587872
-0.00580828
-0.00574274
-0.00568189
-0.00562554
-0.00557351
-0.00552565
-0.0054818
-0.00544185
-0.00540567
-0.00537315
-0.00534421
-0.00531876
-0.00529672
-0.00527803
-0.00526264
-0.0052505
-0.00524153
-0.00523568
-0.0052335
-0.00523558
-0.00524133
-0.0052502
-0.00526224
-0.00926983
-0.00948206
-0.00973796
-0.0100375
-0.0103805
-0.0107658
-0.0111896
-0.0116419
-0.0121033
-0.0125493
-0.01296
-0.0133074
-0.0135541
-0.0136654
-0.0136514
-0.0135394
-0.0133543
-0.0131192
-0.0128513
-0.0125597
-0.0122503
-0.011929
-0.0116014
-0.0112722
-0.0109455
-0.0106241
-0.0103103
-0.0100059
-0.00971184
-0.00942902
-0.00915783
-0.00889849
-0.008651
-0.00841525
-0.008191
-0.00797794
-0.00777573
-0.00758397
-0.00740224
-0.00723013
-0.00706719
-0.00691302
-0.0067672
-0.00662933
-0.00649903
-0.00637593
-0.00625967
-0.00614993
-0.00604639
-0.00594876
-0.00585675
-0.00577011
-0.00568859
-0.00561197
-0.00554002
-0.00547255
-0.00540938
-0.00535034
-0.00529526
-0.005244
-0.00519642
-0.0051524
-0.00511182
-0.00507458
-0.00504058
-0.00500973
-0.00498196
-0.0049572
-0.00493538
-0.00491645
-0.00490036
-0.00488706
-0.00487653
-0.00486868
-0.00486347
-0.0048615
-0.00486338
-0.0048685
-0.00487625
-0.00488669
-0.0079456
-0.00799714
-0.00806075
-0.00813436
-0.00821578
-0.00830263
-0.00839225
-0.00848164
-0.00856767
-0.00864869
-0.00872529
-0.00879889
-0.00887253
-0.00894775
-0.00902119
-0.00908147
-0.00911634
-0.0091203
-0.00909415
-0.00904103
-0.00896435
-0.00886753
-0.00875397
-0.00862687
-0.00848921
-0.00834365
-0.00819256
-0.00803796
-0.0078816
-0.00772495
-0.00756921
-0.0074154
-0.00726432
-0.0071166
-0.00697274
-0.00683311
-0.00669799
-0.00656755
-0.00644191
-0.00632114
-0.00620523
-0.00609418
-0.00598792
-0.00588637
-0.00578944
-0.00569703
-0.00560903
-0.0055253
-0.00544572
-0.00537018
-0.00529855
-0.0052307
-0.00516651
-0.00510587
-0.00504867
-0.0049948
-0.00494415
-0.00489663
-0.00485214
-0.0048106
-0.00477192
-0.00473603
-0.00470286
-0.00467234
-0.0046444
-0.004619
-0.00459608
-0.0045756
-0.0045575
-0.00454176
-0.00452834
-0.00451722
-0.00450836
-0.00450171
-0.00449722
-0.00449549
-0.00449713
-0.00450153
-0.0045081
-0.00451687
-0.00467362
-0.00468952
-0.00471446
-0.00474854
-0.00479214
-0.00484595
-0.00491091
-0.00498815
-0.00507881
-0.00518392
-0.0053039
-0.00543774
-0.0055823
-0.00573195
-0.00587962
-0.00601848
-0.00614327
-0.00625083
-0.00633954
-0.00640878
-0.00645863
-0.00648976
-0.00650332
-0.00650075
-0.00648371
-0.00645393
-0.00641313
-0.00636299
-0.00630506
-0.0062408
-0.00617151
-0.00609835
-0.00602236
-0.00594445
-0.00586538
-0.00578585
-0.0057064
-0.00562753
-0.00554963
-0.00547304
-0.00539803
-0.00532481
-0.00525357
-0.00518444
-0.00511752
-0.0050529
-0.00499062
-0.00493072
-0.00487322
-0.00481812
-0.00476542
-0.00471511
-0.00466716
-0.00462155
-0.00457825
-0.00453723
-0.00449845
-0.00446188
-0.00442748
-0.00439522
-0.00436505
-0.00433696
-0.00431089
-0.00428683
-0.00426473
-0.00424458
-0.00422633
-0.00420998
-0.00419549
-0.00418285
-0.00417203
-0.00416302
-0.00415581
-0.00415034
-0.00414658
-0.00414511
-0.0041465
-0.00415018
-0.00415557
-0.0041627
-0.00229924
-0.0023259
-0.00236352
-0.00241263
-0.00247386
-0.00254786
-0.00263526
-0.0027365
-0.00285173
-0.00298061
-0.00312223
-0.00327489
-0.00343603
-0.00360232
-0.00376992
-0.00393485
-0.00409342
-0.00424255
-0.00437986
-0.00450369
-0.00461304
-0.00470749
-0.00478708
-0.00485224
-0.00490367
-0.00494227
-0.00496906
-0.00498513
-0.00499158
-0.0049895
-0.00497995
-0.00496392
-0.00494234
-0.00491607
-0.00488588
-0.00485247
-0.00481649
-0.00477849
-0.00473897
-0.00469838
-0.00465709
-0.00461543
-0.00457371
-0.00453217
-0.00449103
-0.00445048
-0.00441066
-0.00437171
-0.00433375
-0.00429686
-0.00426112
-0.0042266
-0.00419335
-0.00416141
-0.0041308
-0.00410156
-0.00407371
-0.00404725
-0.00402219
-0.00399854
-0.00397631
-0.00395548
-0.00393607
-0.00391806
-0.00390145
-0.00388623
-0.0038724
-0.00385995
-0.00384888
-0.00383917
-0.00383082
-0.00382383
-0.00381819
-0.00381386
-0.00381081
-0.00380958
-0.00381074
-0.00381372
-0.00381798
-0.00382355
-0.000793195
-0.000828306
-0.000874657
-0.00093268
-0.00100279
-0.00108537
-0.00118066
-0.00128873
-0.00140937
-0.00154197
-0.00168555
-0.00183861
-0.00199918
-0.00216487
-0.00233303
-0.00250089
-0.00266581
-0.00282541
-0.00297765
-0.00312094
-0.00325407
-0.00337623
-0.00348697
-0.00358615
-0.00367387
-0.00375045
-0.00381637
-0.00387221
-0.00391864
-0.00395637
-0.00398613
-0.00400865
-0.00402464
-0.0040348
-0.00403977
-0.00404018
-0.0040366
-0.00402955
-0.00401953
-0.00400697
-0.00399228
-0.00397583
-0.00395795
-0.00393892
-0.00391901
-0.00389845
-0.00387746
-0.00385621
-0.00383487
-0.00381358
-0.00379247
-0.00377165
-0.00375122
-0.00373125
-0.00371183
-0.00369302
-0.00367486
-0.00365742
-0.00364073
-0.00362482
-0.00360973
-0.00359547
-0.00358208
-0.00356957
-0.00355795
-0.00354724
-0.00353744
-0.00352857
-0.00352063
-0.00351362
-0.00350755
-0.00350243
-0.00349824
-0.00349497
-0.00349258
-0.00349159
-0.00349252
-0.00349484
-0.00349805
-0.00350217
0.000152405
0.000112004
6.07802e-05
-1.50082e-06
-7.50143e-05
-0.00015985
-0.000255975
-0.000363182
-0.000481051
-0.000608909
-0.000745805
-0.000890505
-0.00104151
-0.00119708
-0.00135535
-0.0015144
-0.00167232
-0.00182735
-0.0019779
-0.00212263
-0.00226042
-0.00239041
-0.00251201
-0.00262481
-0.00272864
-0.00282347
-0.00290944
-0.00298678
-0.00305584
-0.00311702
-0.00317076
-0.00321753
-0.00325785
-0.00329219
-0.00332106
-0.00334494
-0.00336429
-0.00337955
-0.00339114
-0.00339946
-0.00340487
-0.0034077
-0.00340828
-0.00340689
-0.00340381
-0.00339926
-0.00339348
-0.00338666
-0.00337899
-0.00337062
-0.00336172
-0.00335241
-0.00334281
-0.00333303
-0.00332317
-0.00331332
-0.00330355
-0.00329393
-0.00328452
-0.00327538
-0.00326655
-0.00325808
-0.00325001
-0.00324237
-0.00323519
-0.00322848
-0.00322229
-0.00321661
-0.00321148
-0.00320689
-0.00320288
-0.00319943
-0.00319656
-0.00319425
-0.00319247
-0.0031917
-0.00319242
-0.00319414
-0.0031964
-0.00319921
0.000726772
0.000684775
0.000632823
0.00057085
0.000498864
0.000416956
0.000325325
0.000224299
0.000114359
-3.84726e-06
-0.000129499
-0.000261605
-0.00039902
-0.000540472
-0.000684608
-0.000830038
-0.000975385
-0.00111934
-0.00126068
-0.00139833
-0.00153136
-0.00165898
-0.00178058
-0.00189571
-0.00200403
-0.00210537
-0.00219966
-0.00228692
-0.00236727
-0.0024409
-0.00250804
-0.00256897
-0.002624
-0.00267346
-0.00271769
-0.00275704
-0.00279185
-0.00282247
-0.00284922
-0.00287243
-0.00289241
-0.00290944
-0.00292379
-0.00293574
-0.00294551
-0.00295334
-0.00295944
-0.002964
-0.00296719
-0.0029692
-0.00297016
-0.00297022
-0.00296951
-0.00296813
-0.00296621
-0.00296384
-0.0029611
-0.00295808
-0.00295484
-0.00295145
-0.00294798
-0.00294447
-0.00294098
-0.00293754
-0.00293419
-0.00293097
-0.0029279
-0.00292501
-0.00292233
-0.00291987
-0.00291765
-0.00291569
-0.00291398
-0.00291252
-0.00291129
-0.00291072
-0.00291124
-0.00291243
-0.00291385
-0.00291551
0.00105819
0.00101729
0.000967479
0.000908802
0.000841371
0.000765373
0.000681076
0.000588844
0.000489147
0.000382561
0.000269773
0.000151573
2.88434e-05
-9.74613e-05
-0.000226337
-0.000356757
-0.000487701
-0.000618181
-0.000747269
-0.000874108
-0.000997936
-0.00111809
-0.00123401
-0.00134524
-0.00145142
-0.00155231
-0.00164772
-0.00173758
-0.00182187
-0.00190062
-0.00197393
-0.00204195
-0.00210483
-0.00216278
-0.00221602
-0.00226477
-0.00230929
-0.00234981
-0.00238659
-0.00241986
-0.00244987
-0.00247685
-0.00250102
-0.00252261
-0.00254182
-0.00255885
-0.00257387
-0.00258708
-0.00259862
-0.00260866
-0.00261734
-0.00262479
-0.00263114
-0.00263649
-0.00264097
-0.00264466
-0.00264765
-0.00265003
-0.00265188
-0.00265326
-0.00265424
-0.00265487
-0.00265521
-0.00265531
-0.00265519
-0.00265492
-0.00265451
-0.002654
-0.00265341
-0.00265277
-0.00265209
-0.0026514
-0.00265069
-0.00264997
-0.00264921
-0.00264882
-0.00264918
-0.0026499
-0.00265059
-0.00265125
0.00123194
0.00119378
0.00114777
0.00109402
0.00103269
0.000964004
0.000888242
0.000805759
0.000716976
0.00062239
0.000522565
0.000418132
0.000309778
0.000198233
8.42582e-05
-3.13708e-05
-0.000147882
-0.000264521
-0.000380567
-0.000495347
-0.000608244
-0.000718702
-0.000826237
-0.000930434
-0.00103095
-0.00112751
-0.0012199
-0.00130798
-0.00139165
-0.00147088
-0.00154567
-0.00161605
-0.0016821
-0.00174393
-0.00180166
-0.00185543
-0.0019054
-0.00195173
-0.00199461
-0.00203419
-0.00207067
-0.00210423
-0.00213503
-0.00216325
-0.00218905
-0.00221261
-0.00223406
-0.00225358
-0.00227129
-0.00228732
-0.00230182
-0.0023149
-0.00232667
-0.00233723
-0.0023467
-0.00235515
-0.00236268
-0.00236937
-0.00237528
-0.0023805
-0.00238508
-0.00238907
-0.00239254
-0.00239552
-0.00239807
-0.00240023
-0.00240202
-0.00240347
-0.00240463
-0.0024055
-0.00240611
-0.00240649
-0.00240663
-0.00240653
-0.00240618
-0.00240594
-0.00240615
-0.00240647
-0.00240655
-0.00240637
0.00130402
0.00126937
0.00122789
0.0011797
0.00112497
0.00106393
0.00099685
0.000924042
0.000845875
0.000762766
0.000675178
0.000583615
0.000488618
0.000390755
0.000290614
0.000188793
8.5887e-05
-1.75183e-05
-0.000120859
-0.000223599
-0.000325239
-0.000425322
-0.000523435
-0.000619213
-0.000712344
-0.000802561
-0.000889646
-0.000973429
-0.00105378
-0.00113062
-0.00120388
-0.00127356
-0.00133966
-0.00140222
-0.00146129
-0.00151696
-0.00156932
-0.00161846
-0.0016645
-0.00170757
-0.00174779
-0.00178529
-0.00182019
-0.00185264
-0.00188275
-0.00191066
-0.00193649
-0.00196037
-0.00198241
-0.00200272
-0.00202141
-0.0020386
-0.00205436
-0.00206881
-0.00208202
-0.00209409
-0.00210508
-0.00211508
-0.00212415
-0.00213235
-0.00213974
-0.00214639
-0.00215233
-0.00215761
-0.00216229
-0.00216639
-0.00216994
-0.00217299
-0.00217555
-0.00217766
-0.00217932
-0.00218057
-0.0021814
-0.00218182
-0.00218181
-0.0021817
-0.00218179
-0.00218178
-0.00218134
-0.00218049
0.00131135
0.00128046
0.00124364
0.00120103
0.0011528
0.00109914
0.0010403
0.000976563
0.000908232
0.000835656
0.000759213
0.000679307
0.00059637
0.000510849
0.000423205
0.000333906
0.000243419
0.000152206
6.07123e-05
-3.06318e-05
-0.000121421
-0.000211278
-0.000299856
-0.00038684
-0.000471953
-0.000554949
-0.000635621
-0.000713793
-0.000789325
-0.000862105
-0.000932054
-0.000999116
-0.00106326
-0.00112449
-0.0011828
-0.00123824
-0.00129083
-0.00134065
-0.00138776
-0.00143223
-0.00147415
-0.0015136
-0.00155069
-0.0015855
-0.00161812
-0.00164867
-0.00167723
-0.00170389
-0.00172876
-0.00175192
-0.00177347
-0.00179348
-0.00181204
-0.00182924
-0.00184514
-0.00185982
-0.00187335
-0.00188579
-0.0018972
-0.00190764
-0.00191716
-0.00192581
-0.00193365
-0.0019407
-0.00194701
-0.00195262
-0.00195755
-0.00196184
-0.00196551
-0.00196858
-0.00197108
-0.00197301
-0.0019744
-0.00197524
-0.00197551
-0.00197551
-0.0019755
-0.00197521
-0.00197437
-0.00197296
0.00127831
0.00125107
0.00121872
0.00118137
0.00113918
0.00109232
0.00104101
0.000985489
0.000926007
0.000862854
0.000796338
0.000726786
0.000654543
0.000579967
0.000503423
0.000425284
0.000345919
0.000265696
0.000184974
0.0001041
2.34036e-05
-5.68019e-05
-0.000136226
-0.0002146
-0.000291682
-0.000367252
-0.00044112
-0.000513116
-0.000583101
-0.000650954
-0.000716583
-0.000779913
-0.000840892
-0.000899485
-0.000955675
-0.00100946
-0.00106085
-0.00110987
-0.00115655
-0.00120094
-0.00124308
-0.00128303
-0.00132086
-0.00135662
-0.00139039
-0.00142224
-0.00145223
-0.00148044
-0.00150695
-0.00153181
-0.00155511
-0.00157692
-0.00159729
-0.00161629
-0.00163399
-0.00165045
-0.00166572
-0.00167986
-0.00169292
-0.00170495
-0.001716
-0.00172611
-0.00173532
-0.00174367
-0.0017512
-0.00175792
-0.00176389
-0.00176911
-0.00177361
-0.00177742
-0.00178055
-0.00178302
-0.00178484
-0.001786
-0.00178649
-0.00178658
-0.00178649
-0.00178599
-0.00178482
-0.001783
0.00122098
0.00119714
0.00116888
0.00113632
0.00109958
0.00105882
0.00101423
0.000965986
0.000914321
0.000859464
0.000801669
0.0007412
0.000678336
0.000613364
0.000546577
0.000478274
0.000408753
0.000338308
0.000267232
0.000195805
0.0001243
5.29758e-05
-1.79241e-05
-8.81715e-05
-0.000157556
-0.000225886
-0.000292987
-0.000358706
-0.000422907
-0.000485472
-0.000546304
-0.00060532
-0.000662455
-0.000717658
-0.000770893
-0.000822138
-0.000871381
-0.000918622
-0.00096387
-0.00100714
-0.00104847
-0.00108787
-0.0011254
-0.00116108
-0.00119497
-0.00122711
-0.00125756
-0.00128636
-0.00131357
-0.00133924
-0.00136343
-0.00138619
-0.00140756
-0.00142761
-0.00144638
-0.00146393
-0.00148029
-0.00149552
-0.00150965
-0.00152273
-0.0015348
-0.0015459
-0.00155605
-0.00156529
-0.00157366
-0.00158118
-0.00158787
-0.00159375
-0.00159886
-0.0016032
-0.00160679
-0.00160965
-0.00161178
-0.00161318
-0.00161386
-0.00161401
-0.00161386
-0.00161319
-0.00161178
-0.00160965
0.00115002
0.00112924
0.00110464
0.00107633
0.00104441
0.00100903
0.00097032
0.000928457
0.000883617
0.000835993
0.000785792
0.000733229
0.00067853
0.000621928
0.000563661
0.000503969
0.000443094
0.000381277
0.000318754
0.000255757
0.00019251
0.000129229
6.61186e-05
3.37264e-06
-5.88279e-05
-0.000120315
-0.000180936
-0.00024055
-0.000299031
-0.00035627
-0.000412167
-0.000466641
-0.000519618
-0.000571043
-0.000620867
-0.000669055
-0.000715581
-0.00076043
-0.000803593
-0.000845071
-0.00088487
-0.000923005
-0.000959492
-0.000994356
-0.00102762
-0.00105932
-0.00108949
-0.00111816
-0.00114537
-0.00117116
-0.00119556
-0.00121862
-0.00124037
-0.00126086
-0.00128012
-0.0012982
-0.00131512
-0.00133093
-0.00134566
-0.00135935
-0.00137201
-0.0013837
-0.00139443
-0.00140424
-0.00141314
-0.00142116
-0.00142832
-0.00143464
-0.00144015
-0.00144484
-0.00144875
-0.00145187
-0.00145423
-0.0014558
-0.0014566
-0.00145681
-0.00145661
-0.00145582
-0.00145425
-0.0014519
0.00107243
0.00105435
0.00103297
0.00100839
0.000980684
0.000949978
0.000916393
0.000880065
0.000841143
0.000799785
0.000756161
0.000710446
0.000662825
0.000613488
0.000562628
0.000510442
0.000457127
0.00040288
0.000347896
0.000292365
0.000236474
0.000180403
0.000124325
6.84042e-05
1.27959e-05
-4.2354e-05
-9.69101e-05
-0.000150748
-0.000203753
-0.000255822
-0.000306863
-0.000356794
-0.000405543
-0.00045305
-0.000499262
-0.000544136
-0.000587638
-0.000629742
-0.000670429
-0.000709687
-0.000747509
-0.000783895
-0.000818851
-0.000852385
-0.000884511
-0.000915245
-0.000944606
-0.000972617
-0.000999301
-0.00102469
-0.0010488
-0.00107166
-0.00109331
-0.00111376
-0.00113306
-0.00115123
-0.0011683
-0.00118429
-0.00119923
-0.00121316
-0.00122609
-0.00123805
-0.00124906
-0.00125914
-0.00126832
-0.00127661
-0.00128404
-0.00129061
-0.00129634
-0.00130125
-0.00130534
-0.00130863
-0.00131112
-0.00131281
-0.0013137
-0.00131395
-0.00131372
-0.00131284
-0.00131116
-0.00130867
0.000992789
0.000977065
0.000958493
0.000937142
0.000913092
0.000886437
0.00085728
0.000825733
0.000791919
0.00075597
0.000718023
0.000678224
0.000636723
0.000593676
0.000549242
0.000503582
0.000456858
0.000409232
0.000360866
0.000311918
0.000262543
0.000212892
0.000163111
0.000113341
6.3714e-05
1.43569e-05
-3.46119e-05
-8.30816e-05
-0.00013095
-0.000178122
-0.000224514
-0.000270046
-0.00031465
-0.000358265
-0.000400836
-0.000442318
-0.000482672
-0.000521865
-0.000559872
-0.000596671
-0.000632249
-0.000666595
-0.000699705
-0.000731577
-0.000762214
-0.000791623
-0.000819812
-0.000846792
-0.000872578
-0.000897185
-0.000920629
-0.000942931
-0.000964107
-0.00098418
-0.00100317
-0.00102109
-0.00103798
-0.00105384
-0.0010687
-0.00108258
-0.0010955
-0.00110747
-0.00111852
-0.00112867
-0.00113792
-0.00114629
-0.0011538
-0.00116047
-0.00116629
-0.00117129
-0.00117547
-0.00117883
-0.0011814
-0.00118316
-0.00118411
-0.00118438
-0.00118412
-0.00118319
-0.00118145
-0.0011789
0.000914029
0.000900353
0.000884209
0.000865654
0.000844757
0.000821595
0.000796253
0.000768825
0.000739412
0.000708122
0.000675069
0.000640373
0.000604158
0.000566552
0.000527686
0.000487692
0.000446706
0.000404861
0.000362291
0.000319129
0.000275504
0.000231545
0.000187374
0.00014311
9.88692e-05
5.47596e-05
1.0885e-05
-3.26569e-05
-7.57748e-05
-0.000118384
-0.000160405
-0.000201767
-0.000242404
-0.000282257
-0.000321272
-0.000359404
-0.00039661
-0.000432855
-0.00046811
-0.000502348
-0.00053555
-0.000567699
-0.000598784
-0.000628795
-0.000657729
-0.000685583
-0.000712359
-0.000738059
-0.00076269
-0.000786259
-0.000808775
-0.000830249
-0.000850693
-0.000870119
-0.000888541
-0.000905973
-0.000922429
-0.000937924
-0.000952472
-0.000966087
-0.000978785
-0.000990579
-0.00100148
-0.00101151
-0.00102067
-0.00102897
-0.00103644
-0.00104307
-0.00104887
-0.00105386
-0.00105804
-0.00106142
-0.00106401
-0.00106579
-0.00106677
-0.00106706
-0.00106679
-0.00106583
-0.00106406
-0.0010615
0.000837998
0.000826092
0.000812042
0.000795898
0.000777716
0.00075756
0.000735501
0.000711617
0.000685991
0.000658713
0.000629878
0.000599583
0.000567933
0.000535032
0.000500989
0.000465914
0.00042992
0.000393117
0.000355618
0.000317533
0.000278973
0.000240044
0.000200852
0.000161498
0.000122081
8.26957e-05
4.34318e-05
4.37524e-06
-3.43928e-05
-7.27962e-05
-0.000110764
-0.00014823
-0.000185132
-0.000221417
-0.000257031
-0.00029193
-0.000326072
-0.00035942
-0.000391943
-0.000423612
-0.000454403
-0.000484297
-0.000513276
-0.000541328
-0.000568441
-0.00059461
-0.000619827
-0.000644092
-0.000667404
-0.000689764
-0.000711175
-0.000731641
-0.00075117
-0.000769766
-0.000787439
-0.000804196
-0.000820046
-0.000835
-0.000849066
-0.000862254
-0.000874574
-0.000886036
-0.000896649
-0.000906423
-0.000915367
-0.000923488
-0.000930795
-0.000937296
-0.000942997
-0.000947904
-0.000952023
-0.000955359
-0.000957916
-0.000959691
-0.000960681
-0.000960985
-0.000960702
-0.000959734
-0.000957981
-0.000955445
0.000765797
0.000755417
0.000743173
0.000729104
0.000713258
0.000695688
0.000676454
0.000655619
0.000633254
0.000609432
0.000584232
0.000557735
0.000530028
0.000501198
0.000471335
0.000440532
0.000408881
0.000376476
0.000343411
0.000309779
0.000275673
0.000241184
0.000206401
0.000171412
0.000136301
0.00010115
6.60377e-05
3.10395e-05
-3.77305e-06
-3.83319e-05
-7.25731e-05
-0.000106437
-0.000139866
-0.00017281
-0.00020522
-0.000237052
-0.000268266
-0.000298825
-0.000328698
-0.000357854
-0.000386267
-0.000413916
-0.000440781
-0.000466845
-0.000492095
-0.000516518
-0.000540107
-0.000562853
-0.000584752
-0.000605801
-0.000625998
-0.000645343
-0.000663837
-0.000681483
-0.000698283
-0.000714241
-0.000729362
-0.000743651
-0.000757115
-0.000769757
-0.000781586
-0.000792606
-0.000802825
-0.000812248
-0.000820882
-0.000828732
-0.000835803
-0.000842102
-0.000847632
-0.000852398
-0.000856405
-0.000859656
-0.000862153
-0.000863894
-0.000864877
-0.000865184
-0.0008649
-0.000863941
-0.000862224
-0.000859749
0.000698028
0.000688964
0.000678274
0.000665992
0.000652157
0.000636813
0.00062001
0.000601802
0.000582246
0.000561404
0.000539341
0.000516126
0.00049183
0.000466526
0.000440289
0.000413198
0.000385329
0.000356761
0.000327574
0.000297846
0.000267656
0.000237081
0.000206198
0.000175082
0.000143806
0.00011244
8.10528e-05
4.97109e-05
1.84774e-05
-1.25873e-05
-4.34259e-05
-7.39841e-05
-0.000104211
-0.000134058
-0.000163481
-0.000192438
-0.000220891
-0.000248805
-0.000276148
-0.000302889
-0.000329004
-0.000354467
-0.000379259
-0.000403359
-0.000426754
-0.000449427
-0.000471368
-0.000492566
-0.000513013
-0.000532702
-0.000551629
-0.000569789
-0.000587181
-0.000603802
-0.000619653
-0.000634734
-0.000649045
-0.00066259
-0.000675369
-0.000687387
-0.000698645
-0.000709148
-0.000718898
-0.0007279
-0.000736157
-0.000743672
-0.00075045
-0.000756493
-0.000761804
-0.000766387
-0.000770244
-0.000773378
-0.00077579
-0.000777479
-0.00077844
-0.000778746
-0.000778466
-0.000777529
-0.000775866
-0.000773478
0.000634959
0.00062703
0.000617681
0.000606938
0.000594836
0.000581411
0.000566704
0.00055076
0.000533628
0.00051536
0.000496009
0.000475632
0.00045429
0.000432045
0.000408958
0.000385095
0.000360523
0.000335306
0.000309512
0.000283209
0.000256462
0.000229338
0.000201902
0.00017422
0.000146353
0.000118363
9.03107e-05
6.22532e-05
3.42465e-05
6.34416e-06
-2.14026e-05
-4.89449e-05
-7.62364e-05
-0.000103233
-0.000129894
-0.000156181
-0.000182057
-0.000207489
-0.000232445
-0.000256898
-0.000280821
-0.000304189
-0.000326982
-0.000349179
-0.000370764
-0.00039172
-0.000412034
-0.000431693
-0.000450688
-0.000469009
-0.000486648
-0.0005036
-0.000519859
-0.000535422
-0.000550284
-0.000564444
-0.0005779
-0.000590652
-0.000602698
-0.00061404
-0.000624679
-0.000634614
-0.000643848
-0.000652381
-0.000660217
-0.000667355
-0.000673799
-0.000679549
-0.000684608
-0.000688978
-0.000692659
-0.000695654
-0.000697963
-0.000699584
-0.000700515
-0.000700815
-0.000700541
-0.000699637
-0.000698042
-0.000695758
0.000576639
0.000569691
0.000561498
0.000552084
0.000541477
0.000529708
0.000516811
0.000502825
0.000487788
0.000471745
0.000454742
0.000436826
0.000418048
0.000398459
0.000378112
0.000357063
0.000335367
0.00031308
0.000290258
0.00026696
0.000243242
0.00021916
0.000194772
0.000170131
0.000145294
0.000120313
9.52402e-05
7.0127e-05
4.50221e-05
1.99732e-05
-4.97409e-06
-2.9776e-05
-5.43907e-05
-7.87783e-05
-0.000102901
-0.000126723
-0.000150211
-0.000173334
-0.000196061
-0.000218365
-0.000240221
-0.000261605
-0.000282496
-0.000302873
-0.000322719
-0.000342017
-0.000360752
-0.000378911
-0.000396482
-0.000413454
-0.000429819
-0.000445567
-0.000460693
-0.000475189
-0.000489052
-0.000502275
-0.000514857
-0.000526794
-0.000538084
-0.000548725
-0.000558716
-0.000568056
-0.000576745
-0.000584783
-0.000592169
-0.000598904
-0.000604989
-0.000610423
-0.000615208
-0.000619344
-0.000622832
-0.000625673
-0.000627866
-0.000629411
-0.000630303
-0.000630594
-0.00063033
-0.000629465
-0.000627948
-0.000625781
0.000522973
0.000516873
0.00050968
0.000501416
0.000492102
0.000481765
0.000470434
0.000458141
0.00044492
0.000430806
0.00041584
0.00040006
0.00038351
0.000366234
0.000348275
0.000329681
0.000310499
0.000290776
0.000270562
0.000249904
0.000228852
0.000207454
0.000185758
0.000163814
0.000141667
0.000119365
9.69524e-05
7.44747e-05
5.19749e-05
2.9495e-05
7.07579e-06
-1.52437e-05
-3.74257e-05
-5.94342e-05
-8.12348e-05
-0.000102795
-0.000124083
-0.00014507
-0.000165728
-0.000186031
-0.000205954
-0.000225476
-0.000244574
-0.00026323
-0.000281424
-0.00029914
-0.000316363
-0.000333079
-0.000349275
-0.00036494
-0.000380063
-0.000394635
-0.000408647
-0.000422093
-0.000434965
-0.000447258
-0.000458966
-0.000470087
-0.000480615
-0.000490547
-0.000499882
-0.000508616
-0.000516748
-0.000524277
-0.000531201
-0.00053752
-0.000543232
-0.000548338
-0.000552836
-0.000556728
-0.000560012
-0.00056269
-0.00056476
-0.000566221
-0.00056707
-0.000567349
-0.000567098
-0.000566276
-0.000564843
-0.0005628
0.000473775
0.00046841
0.000462085
0.000454815
0.000446622
0.000437527
0.000427554
0.00041673
0.000405084
0.000392647
0.000379451
0.000365531
0.000350922
0.000335661
0.000319787
0.00030334
0.000286358
0.000268884
0.000250958
0.000232623
0.000213919
0.00019489
0.000175577
0.000156022
0.000136265
0.000116347
9.63088e-05
7.61884e-05
5.60243e-05
3.58539e-05
1.57133e-05
-4.36258e-06
-2.43398e-05
-4.41859e-05
-6.38696e-05
-8.33609e-05
-0.000102631
-0.000121654
-0.000140402
-0.000158852
-0.000176981
-0.000194766
-0.000212188
-0.000229228
-0.000245867
-0.000262089
-0.000277879
-0.000293222
-0.000308106
-0.000322518
-0.000336448
-0.000349885
-0.000362819
-0.000375244
-0.000387151
-0.000398534
-0.000409386
-0.000419703
-0.000429478
-0.000438709
-0.000447392
-0.000455522
-0.000463098
-0.000470117
-0.000476577
-0.000482475
-0.000487812
-0.000492584
-0.000496792
-0.000500435
-0.000503511
-0.000506021
-0.000507964
-0.000509338
-0.00051014
-0.000510406
-0.000510168
-0.000509393
-0.000508047
-0.000506131
0.000428807
0.00042408
0.000418508
0.000412103
0.000404883
0.000396866
0.000388074
0.000378527
0.000368253
0.000357275
0.000345622
0.000333322
0.000320407
0.000306908
0.000292858
0.000278289
0.000263238
0.000247737
0.000231824
0.000215534
0.000198902
0.000181966
0.000164762
0.000147325
0.000129691
0.000111897
9.39755e-05
7.59625e-05
5.78912e-05
3.97947e-05
2.1705e-05
3.65356e-06
-1.43294e-05
-3.22146e-05
-4.99737e-05
-6.75795e-05
-8.50059e-05
-0.000102228
-0.000119221
-0.000135964
-0.000152434
-0.00016861
-0.000184474
-0.000200007
-0.000215192
-0.000230014
-0.000244456
-0.000258504
-0.000272146
-0.00028537
-0.000298164
-0.000310518
-0.000322422
-0.000333867
-0.000344845
-0.000355349
-0.000365373
-0.000374909
-0.000383953
-0.0003925
-0.000400544
-0.000408083
-0.000415113
-0.000421629
-0.000427631
-0.000433114
-0.000438078
-0.000442519
-0.000446438
-0.000449832
-0.0004527
-0.000455042
-0.000456857
-0.000458143
-0.000458897
-0.000459149
-0.000458925
-0.000458198
-0.00045694
-0.000455153
0.000387803
0.000383632
0.000378714
0.000373061
0.000366688
0.000359611
0.000351846
0.000343414
0.000334334
0.000324629
0.000314323
0.000303441
0.000292007
0.00028005
0.000267598
0.000254678
0.000241321
0.000227557
0.000213416
0.000198929
0.000184127
0.000169042
0.000153706
0.000138149
0.000122402
0.000106498
9.04657e-05
7.43362e-05
5.81392e-05
4.19037e-05
2.56585e-05
9.43134e-06
-6.75056e-06
-2.28608e-05
-3.88739e-05
-5.47651e-05
-7.05106e-05
-8.60875e-05
-0.000101474
-0.000116649
-0.000131592
-0.000146284
-0.000160706
-0.000174843
-0.000188676
-0.000202192
-0.000215374
-0.00022821
-0.000240687
-0.000252791
-0.000264514
-0.000275842
-0.000286768
-0.000297282
-0.000307375
-0.000317041
-0.000326271
-0.000335059
-0.000343399
-0.000351286
-0.000358715
-0.000365681
-0.000372181
-0.00037821
-0.000383765
-0.000388844
-0.000393443
-0.000397562
-0.000401197
-0.000404347
-0.00040701
-0.000409187
-0.000410875
-0.000412072
-0.000412778
-0.000413015
-0.000412806
-0.000412128
-0.000410957
-0.000409296
0.000350481
0.000346795
0.000342449
0.000337453
0.000331819
0.000325561
0.000318694