/*--------------------------------*- C++ -*----------------------------------*\
| =========                 |                                                 |
| \\      /  F ield         | OpenFOAM: The Open Source CFD Toolbox           |
|  \\    /   O peration     | Version:  2306                                  |
|   \\  /    A nd           | Website:  www.openfoam.com                      |
|    \\/     M anipulation  |                                                 |
\*---------------------------------------------------------------------------*/
FoamFile
{
    version     2.0;
    format      ascii;
    arch        "LSB;label=32;scalar=64";
    class       surfaceScalarField;
    location    "75";
    object      phi;
}
// * * * * * * * * * * * * * * * * * * * * * * * * * * * * * * * * * * * * * //

dimensions      [0 3 -1 0 0 0 0];

oriented        oriented;

internalField   nonuniform List<scalar> 
37980
(
1.17163
4.49803
-1.6866e-08
1.40715
4.48918
-1.76254e-08
1.6524
4.47946
-1.76203e-08
1.90819
4.46891
-1.7724e-08
2.17621
4.45668
-1.85052e-08
2.4621
4.43882
-1.95842e-08
2.78394
4.40286
-1.82759e-08
3.19522
4.31342
-1.32307e-08
3.85268
4.06724
-1.04207e-08
5.20913
3.36825
9.99246e-08
3.76046
1.44867
1.20546e-08
2.83465
0.925809
5.81903e-08
2.21256
0.622091
1.65526e-08
1.77808
0.434481
-1.97032e-09
1.45225
0.325825
2.82452e-09
1.21112
0.241129
5.06512e-09
1.03798
0.173148
4.67306e-09
0.917116
0.12086
3.28697e-09
0.834197
0.0829185
2.05652e-09
0.777144
0.0570535
1.12178e-09
0.736989
0.0401552
4.396e-10
0.707474
0.0295143
3.18317e-11
0.684388
0.0230861
-2.01873e-10
0.664994
0.019394
-2.50313e-10
0.647587
0.0174074
-2.3788e-10
0.631153
0.016434
-1.53173e-10
0.615126
0.0160267
-8.84655e-11
0.599218
0.0159087
-1.34127e-11
0.583301
0.0159162
1.93031e-11
0.567344
0.0159573
5.07637e-11
0.55136
0.0159843
4.96822e-11
0.535384
0.0159758
5.44259e-11
0.519459
0.0159247
4.05919e-11
0.503628
0.0158318
3.83216e-11
0.487926
0.0157017
2.54533e-11
0.472385
0.0155406
2.47109e-11
0.457031
0.0153547
1.63529e-11
0.441881
0.0151499
1.80342e-11
0.426949
0.0149316
1.31352e-11
0.412245
0.0147043
1.59003e-11
0.397773
0.0144718
1.28355e-11
0.383536
0.0142372
1.56193e-11
0.369533
0.0140032
1.34277e-11
0.355761
0.0137716
1.58254e-11
0.342217
0.0135441
1.41211e-11
0.328895
0.013322
1.61011e-11
0.315789
0.0131062
1.47552e-11
0.302891
0.0128974
1.6394e-11
0.290195
0.012696
1.53434e-11
0.277693
0.0125026
1.67114e-11
0.265375
0.0123172
1.58974e-11
0.253235
0.01214
1.70371e-11
0.241264
0.0119711
1.64e-11
0.229454
0.0118105
1.73357e-11
0.217796
0.0116582
1.68245e-11
0.206282
0.011514
1.75737e-11
0.194904
0.0113778
1.71518e-11
0.183654
0.0112496
1.77308e-11
0.172525
0.0111292
1.73777e-11
0.161509
0.0110164
1.78037e-11
0.150598
0.0109111
1.7513e-11
0.139784
0.0108131
1.78037e-11
0.129062
0.0107223
1.75794e-11
0.118424
0.0106385
1.77495e-11
0.107862
0.0105616
1.75998e-11
0.0973707
0.0104913
1.76529e-11
0.0869431
0.0104277
1.75743e-11
0.0765727
0.0103703
1.74828e-11
0.0662535
0.0103193
1.74365e-11
0.0559792
0.0102743
1.71432e-11
0.0457438
0.0102354
1.71196e-11
0.0355414
0.0102025
1.67111e-11
0.0253657
0.0101757
1.69407e-11
0.0152104
0.0101553
1.59242e-11
0.00506846
0.0101419
1.37678e-11
-0.00506866
0.0101371
5.51627e-12
-0.0152106
0.0101419
2.40328e-11
-0.0253659
0.0101553
2.05143e-11
-0.0355415
0.0101757
3.7154e-11
0.0102024
4.17043e-11
2.24742
4.05843
-6.40326e-10
2.71286
4.02375
-2.3374e-09
3.21255
3.97977
-3.80306e-09
3.75745
3.92401
-6.85619e-09
4.36154
3.85259
-1.18701e-08
5.04106
3.7593
-1.62939e-08
5.81008
3.63384
-2.01099e-08
6.66437
3.45914
-2.24597e-08
7.52408
3.20753
-2.2095e-08
8.05313
2.83921
-1.70678e-08
7.14744
2.35436
1.95594e-08
6.17268
1.90057
2.48893e-08
5.33233
1.46244
1.50783e-08
4.66055
1.10626
9.34564e-09
4.13956
0.846817
7.34989e-09
3.7248
0.65589
4.90335e-09
3.3883
0.509644
3.20612e-09
3.11318
0.395979
1.97731e-09
2.88692
0.309178
8.809e-10
2.69931
0.244663
2.03975e-11
2.54164
0.197823
-4.51981e-10
2.40678
0.164383
-6.63605e-10
2.28915
0.140711
-6.7743e-10
2.1846
0.123939
-5.88908e-10
2.09009
0.111919
-4.50077e-10
2.00342
0.103111
-3.10581e-10
1.92299
0.0964493
-1.91828e-10
1.84769
0.091216
-1.0723e-10
1.77666
0.086939
-5.26355e-11
1.70931
0.0833126
-2.50637e-11
1.64515
0.0801409
-1.27994e-11
1.58383
0.0772984
-1.18789e-11
1.52505
0.0747046
-1.35663e-11
1.46857
0.0723075
-1.74669e-11
1.4142
0.0700728
-1.91782e-11
1.36177
0.0679772
-2.06084e-11
1.31112
0.0660048
-1.97248e-11
1.26212
0.0641439
-1.88324e-11
1.21467
0.0623857
-1.66672e-11
1.16865
0.0607232
-1.50696e-11
1.12397
0.0591507
-1.29444e-11
1.08054
0.0576632
-1.15901e-11
1.03829
0.0562563
-1.00052e-11
0.997137
0.0549259
-9.11548e-12
0.957012
0.0536683
-8.05892e-12
0.917855
0.0524799
-7.53875e-12
0.879603
0.0513575
-6.851e-12
0.842203
0.0502978
-6.56099e-12
0.805601
0.0492981
-6.10436e-12
0.769748
0.0483554
-5.95003e-12
0.734598
0.0474671
-5.64155e-12
0.700107
0.0466309
-5.57456e-12
0.666234
0.0458442
-5.37008e-12
0.63294
0.0451049
-5.36729e-12
0.600187
0.044411
-5.24386e-12
0.56794
0.0437606
-5.29342e-12
0.536166
0.0431518
-5.23632e-12
0.504833
0.0425829
-5.32934e-12
0.47391
0.0420525
-5.32858e-12
0.443367
0.0415589
-5.45711e-12
0.413177
0.041101
-5.50461e-12
0.383313
0.0406774
-5.66174e-12
0.353748
0.040287
-5.75367e-12
0.324458
0.0399287
-5.93561e-12
0.295418
0.0396015
-6.0746e-12
0.266605
0.0393045
-6.28653e-12
0.237996
0.0390369
-6.49391e-12
0.209568
0.0387979
-6.7704e-12
0.1813
0.0385869
-7.1114e-12
0.153171
0.0384033
-7.52978e-12
0.12516
0.0382469
-8.06624e-12
0.097245
0.0381173
-8.57636e-12
0.0694059
0.0380147
-9.08961e-12
0.0416216
0.0379396
-9.99816e-12
0.0138704
0.0378931
-1.27298e-11
-0.0138695
0.0378771
-2.03334e-11
-0.0416207
0.0378931
-7.76153e-12
-0.069405
0.0379396
-1.1506e-11
-0.0972441
0.0380147
3.02435e-12
0.0381173
6.03772e-12
2.19177
3.64914
-2.29944e-10
2.60949
3.60602
-7.47823e-10
3.03759
3.55168
-1.18292e-09
3.478
3.4836
-1.99424e-09
3.93217
3.39842
-3.36148e-09
4.39969
3.29177
-3.99768e-09
4.87515
3.15839
-3.95421e-09
5.34161
2.99267
-2.87401e-09
5.75842
2.79072
-1.66744e-09
6.04487
2.55276
5.72792e-10
6.11605
2.28318
1.8036e-09
6.02306
1.99356
4.20283e-09
5.7884
1.69711
6.06011e-09
5.47656
1.4181
5.43396e-09
5.15188
1.1715
3.93387e-09
4.84436
0.963406
2.6206e-09
4.5608
0.793204
1.71179e-09
4.30027
0.656508
9.66336e-10
4.06127
0.54818
2.86969e-10
3.84245
0.463482
-2.50473e-10
3.6423
0.397976
-5.40652e-10
3.4591
0.347585
-6.48796e-10
3.29105
0.308759
-6.21357e-10
3.13641
0.278579
-5.25347e-10
2.99356
0.254768
-4.0019e-10
2.86105
0.235617
-2.8206e-10
2.73762
0.219882
-1.84756e-10
2.62217
0.206672
-1.177e-10
2.51375
0.19536
-7.49824e-11
2.41155
0.185503
-5.42718e-11
2.31491
0.176788
-4.47964e-11
2.22321
0.168991
-4.40449e-11
2.13597
0.161948
-4.43773e-11
2.05274
0.155538
-4.62311e-11
1.97314
0.149668
-4.57368e-11
1.89686
0.144266
-4.50362e-11
1.82358
0.139276
-4.2238e-11
1.75308
0.134652
-3.96228e-11
1.68511
0.130356
-3.5938e-11
1.61947
0.126356
-3.29528e-11
1.556
0.122627
-2.95723e-11
1.49452
0.119143
-2.70402e-11
1.43489
0.115887
-2.43701e-11
1.37697
0.112839
-2.24501e-11
1.32065
0.109986
-2.04416e-11
1.26582
0.107312
-1.90171e-11
1.21237
0.104806
-1.74977e-11
1.16021
0.102457
-1.64207e-11
1.10926
0.100254
-1.52448e-11
1.05943
0.0981881
-1.44112e-11
1.01064
0.0962517
-1.34852e-11
0.962836
0.094437
-1.28355e-11
0.915943
0.0927371
-1.21048e-11
0.869902
0.0911458
-1.16052e-11
0.824655
0.0896574
-1.10352e-11
0.780149
0.0882666
-1.06629e-11
0.736332
0.0869687
-1.02283e-11
0.693156
0.0857592
-9.96469e-12
0.650574
0.0846342
-9.64551e-12
0.608543
0.08359
-9.47295e-12
0.567021
0.0826232
-9.25243e-12
0.525968
0.0817308
-9.15567e-12
0.485345
0.08091
-9.0203e-12
0.445115
0.0801583
-8.98736e-12
0.405243
0.0794733
-8.93122e-12
0.365695
0.0788529
-8.95967e-12
0.326436
0.0782954
-8.99675e-12
0.287435
0.0777991
-9.11526e-12
0.24866
0.0773625
-9.3075e-12
0.210079
0.0769846
-9.59032e-12
0.171661
0.0766644
-1.00077e-11
0.133377
0.0764014
-1.04202e-11
0.0951961
0.0761955
-1.09021e-11
0.0570888
0.076047
-1.19569e-11
0.0190252
0.0759566
-1.51598e-11
-0.0190239
0.0759262
-2.41456e-11
-0.0570875
0.0759566
-9.97555e-12
-0.0951948
0.076047
-1.85489e-11
-0.133376
0.0761955
-1.54134e-12
0.0764014
-2.35248e-12
2.02875
3.27674
-2.62573e-10
2.40338
3.23139
-4.37164e-10
2.77983
3.17523
-4.69526e-10
3.15686
3.10656
-6.37993e-10
3.53192
3.02336
-8.1578e-10
3.90034
2.92336
-6.39881e-10
4.25441
2.80432
-2.73117e-10
4.5825
2.66458
4.87455e-10
4.86944
2.50378
1.30876e-09
5.09897
2.32323
2.19958e-09
5.25631
2.12583
2.76517e-09
5.33312
1.91675
2.96273e-09
5.32694
1.7033
2.7406e-09
5.25007
1.49497
2.34043e-09
5.12122
1.30034
1.85521e-09
4.95856
1.12606
1.31461e-09
4.77619
0.975579
7.98247e-10
4.5838
0.848899
3.26822e-10
4.38813
0.743845
-2.01947e-11
4.19414
0.657472
-2.47103e-10
4.00537
0.58675
-3.38648e-10
3.82414
0.528816
-3.39837e-10
3.65177
0.481129
-2.78213e-10
3.4888
0.441547
-1.91793e-10
3.33524
0.408331
-1.02035e-10
3.19074
0.380119
-2.77472e-11
3.05476
0.355861
2.57624e-11
2.92667
0.33476
5.64358e-11
2.80582
0.316212
7.00785e-11
2.69156
0.299759
7.01724e-11
2.5833
0.285047
6.41767e-11
2.48049
0.271804
5.437e-11
2.38263
0.259812
4.53741e-11
2.28926
0.248901
3.70375e-11
2.2
0.238929
3.13093e-11
2.11449
0.229783
2.68544e-11
2.0324
0.221366
2.43805e-11
1.95345
0.2136
2.25244e-11
1.87739
0.206417
2.16876e-11
1.80398
0.199758
2.08961e-11
1.73304
0.193575
2.05407e-11
1.66435
0.187825
2.0008e-11
1.59777
0.182469
1.96793e-11
1.53314
0.177475
1.91647e-11
1.47031
0.172815
1.87912e-11
1.40916
0.168461
1.82869e-11
1.34957
0.164393
1.79077e-11
1.29144
0.160588
1.74467e-11
1.23466
0.157029
1.70977e-11
1.17915
0.1537
1.66932e-11
1.12482
0.150585
1.63845e-11
1.07158
0.147671
1.60305e-11
1.01937
0.144947
1.57565e-11
0.96812
0.1424
1.54389e-11
0.917755
0.140022
1.51898e-11
0.868219
0.137803
1.48963e-11
0.819454
0.135734
1.46638e-11
0.771405
0.133809
1.43868e-11
0.724019
0.13202
1.41668e-11
0.677248
0.130361
1.39044e-11
0.631044
0.128827
1.36956e-11
0.585363
0.127412
1.34493e-11
0.540161
0.126112
1.32524e-11
0.495396
0.124923
1.3026e-11
0.451029
0.12384
1.28421e-11
0.407021
0.122861
1.26391e-11
0.363334
0.121982
1.24652e-11
0.319932
0.121201
1.22812e-11
0.276779
0.120515
1.21012e-11
0.23384
0.119923
1.19193e-11
0.191082
0.119423
1.17444e-11
0.148469
0.119014
1.16676e-11
0.10597
0.118695
1.17588e-11
0.0635507
0.118466
1.16951e-11
0.0211788
0.118329
1.0524e-11
-0.0211774
0.118282
5.65409e-12
-0.0635493
0.118329
1.44411e-11
-0.105969
0.118466
1.41548e-11
-0.148468
0.118695
2.48671e-11
0.119014
2.98447e-11
1.85898
2.93982
-3.34293e-10
2.19445
2.89592
-4.07806e-10
2.52727
2.84241
-4.0093e-10
2.85552
2.77831
-4.49292e-10
3.17633
2.70255
-4.65368e-10
3.48561
2.61408
-3.35901e-10
3.77789
2.51204
-1.31608e-10
4.0464
2.39607
2.04192e-10
4.2836
2.26658
5.3902e-10
4.48195
2.12488
8.74143e-10
4.63441
1.97337
1.07078e-09
4.7356
1.81556
1.13241e-09
4.78296
1.65593
1.0364e-09
4.77832
1.49961
8.34373e-10
4.72716
1.35151
5.63716e-10
4.63774
1.21547
2.51107e-10
4.51963
1.09369
-2.80983e-11
4.3819
0.986628
-2.58827e-10
4.23218
0.893568
-3.97664e-10
4.07647
0.813185
-4.66517e-10
3.91929
0.743927
-4.62143e-10
3.76389
0.684221
-4.17825e-10
3.61242
0.632594
-3.44157e-10
3.46623
0.587737
-2.67394e-10
3.32603
0.548533
-1.94024e-10
3.19209
0.514053
-1.37407e-10
3.06442
0.483538
-9.45157e-11
2.94281
0.45637
-6.9252e-11
2.82697
0.432049
-5.3376e-11
2.71656
0.410167
-4.77776e-11
2.61122
0.39039
-4.45217e-11
2.51058
0.372444
-4.5162e-11
2.41429
0.356099
-4.42478e-11
2.32203
0.341161
-4.44121e-11
2.23349
0.32747
-4.22918e-11
2.14839
0.314887
-4.07681e-11
2.06646
0.303293
-3.7586e-11
1.98747
0.292587
-3.52246e-11
1.91121
0.282682
-3.19278e-11
1.83747
0.2735
-2.96003e-11
1.76607
0.264975
-2.67676e-11
1.69684
0.25705
-2.48498e-11
1.62964
0.249672
-2.26151e-11
1.56432
0.242796
-2.11381e-11
1.50075
0.236383
-1.94174e-11
1.43882
0.230396
-1.82892e-11
1.37841
0.224803
-1.69551e-11
1.31942
0.219576
-1.60816e-11
1.26176
0.21469
-1.50335e-11
1.20534
0.210121
-1.43486e-11
1.15007
0.205848
-1.35196e-11
1.09589
0.201853
-1.29841e-11
1.04272
0.19812
-1.23294e-11
0.990487
0.194631
-1.19182e-11
0.939135
0.191374
-1.14074e-11
0.888601
0.188336
-1.11004e-11
0.838829
0.185506
-1.07094e-11
0.789766
0.182872
-1.04898e-11
0.74136
0.180426
-1.01991e-11
0.693562
0.178159
-1.00511e-11
0.646327
0.176062
-9.84405e-12
0.599609
0.17413
-9.75339e-12
0.553367
0.172355
-9.61856e-12
0.507559
0.170731
-9.57471e-12
0.462145
0.169254
-9.50479e-12
0.417087
0.167919
-9.50244e-12
0.372348
0.166722
-9.50299e-12
0.327891
0.165658
-9.55399e-12
0.283681
0.164725
-9.66017e-12
0.239684
0.16392
-9.79999e-12
0.195865
0.163242
-1.00395e-11
0.152191
0.162688
-1.02111e-11
0.108629
0.162257
-1.04627e-11
0.065146
0.161949
-1.12227e-11
0.0217105
0.161764
-1.39953e-11
-0.0217092
0.161702
-2.203e-11
-0.0651447
0.161764
-9.78616e-12
-0.108627
0.161949
-1.87853e-11
-0.15219
0.162257
-4.24814e-12
0.162688
-6.99353e-12
1.67206
2.63988
-9.14404e-11
1.96834
2.59964
-8.91704e-11
2.25952
2.55123
-7.48226e-11
2.54362
2.49421
-4.42125e-11
2.81804
2.42813
-5.05224e-11
3.07948
2.35263
-1.20826e-12
3.32395
2.26757
8.03698e-11
3.54688
2.17314
2.16548e-10
3.74343
2.07003
3.47395e-10
3.90887
1.95945
4.75652e-10
4.03901
1.84323
5.50591e-10
4.13087
1.72371
5.73388e-10
4.18319
1.60361
5.33857e-10
4.197
1.4858
4.43345e-10
4.17565
1.37286
3.28077e-10
4.1243
1.26682
2.00947e-10
4.04904
1.16896
9.61115e-11
3.95588
1.07979
1.29744e-11
3.85017
0.999272
-3.19591e-11
3.73639
0.926972
-5.02375e-11
3.61807
0.862243
-4.11866e-11
3.49794
0.804348
-1.81965e-11
3.37801
0.752531
1.19915e-11
3.25967
0.706077
4.11254e-11
3.14386
0.664334
6.5059e-11
3.03119
0.626723
8.04064e-11
2.92199
0.592739
8.78622e-11
2.81642
0.561945
8.81662e-11
2.7145
0.533965
8.41019e-11
2.61619
0.508475
7.69975e-11
2.52139
0.485193
6.9336e-11
2.42996
0.463878
6.15558e-11
2.34174
0.444319
5.49913e-11
2.25657
0.426332
4.92921e-11
2.17428
0.409757
4.49477e-11
2.09471
0.394455
4.13551e-11
2.0177
0.380303
3.86545e-11
1.9431
0.367193
3.63541e-11
1.87075
0.355029
3.45075e-11
1.80052
0.343728
3.2834e-11
1.73228
0.333215
3.13709e-11
1.66591
0.323424
3.00006e-11
1.60128
0.314296
2.87442e-11
1.5383
0.305779
2.75713e-11
1.47686
0.297826
2.64759e-11
1.41686
0.290394
2.54727e-11
1.35822
0.283446
2.45286e-11
1.30084
0.276947
2.36781e-11
1.24467
0.270868
2.28711e-11
1.18961
0.265181
2.21512e-11
1.1356
0.259859
2.14621e-11
1.08257
0.254882
2.0847e-11
1.03046
0.250227
2.02539e-11
0.979213
0.245877
1.97205e-11
0.928773
0.241815
1.92057e-11
0.879085
0.238024
1.87371e-11
0.8301
0.234491
1.82866e-11
0.781769
0.231203
1.78717e-11
0.734046
0.228149
1.74768e-11
0.686887
0.225317
1.711e-11
0.64025
0.222699
1.67653e-11
0.594095
0.220285
1.64441e-11
0.548382
0.218068
1.61464e-11
0.503073
0.21604
1.58714e-11
0.458132
0.214195
1.56196e-11
0.413524
0.212528
1.53946e-11
0.369213
0.211032
1.5192e-11
0.325166
0.209705
1.50255e-11
0.281351
0.208541
1.48808e-11
0.237734
0.207537
1.47891e-11
0.194284
0.206692
1.47554e-11
0.15097
0.206002
1.48605e-11
0.107762
0.205466
1.51752e-11
0.0646276
0.205083
1.5468e-11
0.021538
0.204854
1.51285e-11
-0.0215368
0.204777
1.23758e-11
-0.0646263
0.204854
1.78466e-11
-0.10776
0.205083
1.89902e-11
-0.150969
0.205466
2.59967e-11
0.206002
2.99472e-11
1.46184
2.38018
-2.603e-10
1.71656
2.34492
-2.63212e-10
1.96482
2.30297
-1.63059e-10
2.20481
2.25421
-1.34018e-10
2.43438
2.19856
-1.43252e-10
2.65097
2.13604
-1.35269e-10
2.85173
2.06681
-1.24921e-10
3.0336
1.99127
-9.4383e-11
3.19355
1.91008
-7.54267e-11
3.32881
1.8242
-5.58316e-11
3.43718
1.73486
-5.75546e-11
3.51735
1.64354
-7.08283e-11
3.56913
1.55183
-9.94459e-11
3.5936
1.46133
-1.36688e-10
3.59299
1.37347
-1.71362e-10
3.57038
1.28943
-2.04317e-10
3.52932
1.21002
-2.22227e-10
3.47337
1.13574
-2.31165e-10
3.40589
1.06675
-2.22544e-10
3.32984
1.00303
-2.07237e-10
3.24771
0.944373
-1.81017e-10
3.16155
0.890504
-1.54674e-10
3.073
0.841087
-1.26215e-10
2.9833
0.795768
-1.03317e-10
2.89344
0.754203
-8.30071e-11
2.8041
0.716057
-6.96932e-11
2.71582
0.681022
-5.90859e-11
2.62895
0.648811
-5.37572e-11
2.54376
0.619164
-4.92237e-11
2.46039
0.591844
-4.76051e-11
2.37894
0.566638
-4.51713e-11
2.29947
0.543351
-4.41499e-11
2.22198
0.521811
-4.1784e-11
2.14645
0.501862
-4.03017e-11
2.07284
0.483362
-3.76571e-11
2.00111
0.466185
-3.58116e-11
1.93119
0.45022
-3.31633e-11
1.86303
0.435362
-3.13148e-11
1.79653
0.421523
-2.89647e-11
1.73164
0.408618
-2.73478e-11
1.66828
0.396575
-2.54014e-11
1.60638
0.385326
-2.40701e-11
1.54586
0.374812
-2.25073e-11
1.48667
0.364978
-2.14303e-11
1.42872
0.355776
-2.01748e-11
1.37195
0.34716
-1.93005e-11
1.3163
0.339092
-1.82886e-11
1.26172
0.331533
-1.75721e-11
1.20813
0.324452
-1.67503e-11
1.1555
0.317819
-1.61631e-11
1.10375
0.311605
-1.54959e-11
1.05285
0.305786
-1.50177e-11
1.00273
0.300339
-1.44778e-11
0.953368
0.295244
-1.4093e-11
0.904701
0.290481
-1.36589e-11
0.856691
0.286034
-1.33535e-11
0.809295
0.281886
-1.30071e-11
0.762474
0.278024
-1.27678e-11
0.716189
0.274434
-1.24943e-11
0.670402
0.271104
-1.23088e-11
0.625078
0.268023
-1.20956e-11
0.580181
0.265182
-1.19539e-11
0.535677
0.262571
-1.17923e-11
0.491535
0.260183
-1.16855e-11
0.44772
0.25801
-1.15709e-11
0.404203
0.256045
-1.1495e-11
0.360953
0.254283
-1.1429e-11
0.317939
0.252718
-1.13864e-11
0.275133
0.251347
-1.13809e-11
0.232506
0.250165
-1.13807e-11
0.190029
0.249169
-1.1482e-11
0.147674
0.248356
-1.15398e-11
0.105414
0.247726
-1.16575e-11
0.063222
0.247276
-1.20718e-11
0.0210699
0.247006
-1.38106e-11
-0.0210688
0.246916
-1.87786e-11
-0.0632208
0.247006
-1.20234e-11
-0.105413
0.247276
-1.93702e-11
-0.147673
0.247726
-1.10936e-11
0.248356
-1.47786e-11
1.24644
2.16045
-1.87642e-10
1.46077
2.13058
-1.0179e-10
1.66842
2.09533
-1.05257e-11
1.86788
2.05475
1.08693e-10
2.05752
2.00893
1.02656e-10
2.23552
1.95804
8.32889e-11
2.39998
1.90234
6.37169e-11
2.54901
1.84224
5.84918e-11
2.68081
1.77828
4.97356e-11
2.79387
1.71114
4.54987e-11
2.8871
1.64163
3.52001e-11
2.95996
1.57067
2.6778e-11
3.01255
1.49923
1.57938e-11
3.04564
1.42824
7.66406e-12
3.06056
1.35855
1.60865e-12
3.05908
1.29091
-2.08744e-13
3.04324
1.22586
2.20644e-12
3.01515
1.16382
8.45564e-12
2.97689
1.10502
1.76331e-11
2.93035
1.04957
2.83059e-11
2.87723
0.997491
3.88002e-11
2.81901
0.948723
4.81244e-11
2.75694
0.903154
5.49103e-11
2.69207
0.860641
5.92673e-11
2.62525
0.821021
6.07881e-11
2.55718
0.784123
6.07528e-11
2.48843
0.749773
5.86805e-11
2.41944
0.717799
5.52959e-11
2.35057
0.688033
5.08638e-11
2.2821
0.660318
4.62721e-11
2.21424
0.634502
4.23215e-11
2.14714
0.610444
3.90155e-11
2.08094
0.588013
3.60406e-11
2.01572
0.567086
3.36169e-11
1.95153
0.547551
3.14182e-11
1.88841
0.529303
2.96406e-11
1.82638
0.512247
2.79417e-11
1.76545
0.496294
2.65565e-11
1.70561
0.481365
2.51521e-11
1.64684
0.467386
2.40064e-11
1.58913
0.454288
2.27972e-11
1.53244
0.442012
2.18257e-11
1.47675
0.430499
2.07751e-11
1.42203
0.4197
1.99522e-11
1.36824
0.409566
1.90458e-11
1.31535
0.400054
1.83539e-11
1.26331
0.391126
1.75768e-11
1.2121
0.382744
1.69961e-11
1.16168
0.374876
1.6331e-11
1.11201
0.367492
1.58403e-11
1.06305
0.360564
1.52687e-11
1.01477
0.354066
1.48486e-11
0.967132
0.347974
1.43545e-11
0.920107
0.342269
1.39901e-11
0.87366
0.336929
1.35609e-11
0.827756
0.331938
1.32417e-11
0.782365
0.327278
1.28693e-11
0.737455
0.322934
1.25891e-11
0.692996
0.318893
1.22676e-11
0.648958
0.315142
1.20237e-11
0.605312
0.311669
1.17496e-11
0.56203
0.308464
1.1541e-11
0.519084
0.305518
1.13122e-11
0.476446
0.302821
1.11403e-11
0.43409
0.300365
1.0957e-11
0.39199
0.298145
1.08279e-11
0.35012
0.296153
1.0702e-11
0.308454
0.294384
1.06605e-11
0.266968
0.292833
1.0787e-11
0.225636
0.291496
1.01168e-11
0.184435
0.29037
9.74231e-12
0.14334
0.289451
1.13383e-11
0.102327
0.288738
1.17232e-11
0.0613731
0.28823
1.14112e-11
0.0204541
0.287925
1.21822e-11
-0.0204531
0.287823
1.28803e-11
-0.0613721
0.287925
1.21325e-11
-0.102326
0.28823
1.49326e-11
-0.143339
0.288738
1.47241e-11
0.289451
1.75395e-11
1.04892
1.97645
-3.83302e-10
1.22784
1.95166
-3.24001e-10
1.40061
1.92256
-1.71494e-10
1.56609
1.88927
-7.17964e-11
1.72307
1.85195
-7.70881e-11
1.87032
1.81079
-9.96256e-11
2.00661
1.76606
-1.23563e-10
2.13075
1.7181
-1.36069e-10
2.24172
1.66732
-1.50018e-10
2.33865
1.6142
-1.57204e-10
2.42098
1.5593
-1.65863e-10
2.48846
1.50319
-1.68374e-10
2.5412
1.44649
-1.70114e-10
2.57966
1.38978
-1.66183e-10
2.60462
1.3336
-1.60232e-10
2.61708
1.27845
-1.50138e-10
2.61823
1.22472
-1.38442e-10
2.60932
1.17273
-1.24959e-10
2.59163
1.12271
-1.11348e-10
2.56637
1.07483
-9.82559e-11
2.53469
1.02917
-8.63905e-11
2.49763
0.98578
-7.64351e-11
2.45613
0.944659
-6.81425e-11
2.411
0.905772
-6.19903e-11
2.36295
0.869065
-5.70443e-11
2.31262
0.834462
-5.37157e-11
2.26051
0.801879
-5.08173e-11
2.20708
0.771225
-4.89172e-11
2.15272
0.742401
-4.68508e-11
2.09772
0.71531
-4.53495e-11
2.04237
0.689855
-4.33975e-11
1.98687
0.66594
-4.18353e-11
1.93141
0.643473
-3.98414e-11
1.87613
0.622364
-3.82209e-11
1.82116
0.60253
-3.62816e-11
1.76657
0.58389
-3.47185e-11
1.71245
0.566368
-3.2948e-11
1.65885
0.549894
-3.15297e-11
1.60581
0.534403
-2.99825e-11
1.55336
0.519831
-2.87365e-11
1.50153
0.506122
-2.74114e-11
1.45032
0.493222
-2.63273e-11
1.39974
0.481081
-2.5198e-11
1.34978
0.469655
-2.42545e-11
1.30045
0.458899
-2.32901e-11
1.25173
0.448775
-2.24672e-11
1.20361
0.439246
-2.16433e-11
1.15608
0.430279
-2.09275e-11
1.10911
0.421842
-2.02249e-11
1.06269
0.413907
-1.96052e-11
1.01681
0.406447
-1.90076e-11
0.97144
0.399437
-1.84754e-11
0.926559
0.392855
-1.79694e-11
0.882148
0.38668
-1.75155e-11
0.838184
0.380893
-1.70881e-11
0.794646
0.375475
-1.6703e-11
0.751512
0.370411
-1.63426e-11
0.708761
0.365686
-1.60172e-11
0.666369
0.361284
-1.5714e-11
0.624316
0.357195
-1.54392e-11
0.58258
0.353405
-1.51849e-11
0.541139
0.349905
-1.4953e-11
0.499971
0.346685
-1.47423e-11
0.459056
0.343736
-1.45477e-11
0.418372
0.341049
-1.43774e-11
0.377898
0.338618
-1.42164e-11
0.337614
0.336437
-1.40873e-11
0.2975
0.334498
-1.39585e-11
0.257534
0.332799
-1.38725e-11
0.217697
0.331333
-1.3774e-11
0.177969
0.330098
-1.37764e-11
0.138329
0.329091
-1.37644e-11
0.0987575
0.32831
-1.38598e-11
0.0592351
0.327752
-1.40283e-11
0.0197421
0.327418
-1.46707e-11
-0.0197412
0.327306
-1.59963e-11
-0.0592342
0.327418
-1.50646e-11
-0.0987566
0.327752
-1.99075e-11
-0.138328
0.32831
-1.85959e-11
0.329091
-2.26292e-11
0.879409
1.82253
-2.92424e-10
1.0289
1.80217
-2.15327e-10
1.1731
1.77835
-9.00715e-11
1.31117
1.75121
1.78176e-11
1.44223
1.72089
7.09248e-12
1.56543
1.68759
-2.00256e-11
1.67995
1.65153
-4.33939e-11
1.78505
1.61299
-5.2836e-11
1.88009
1.57228
-6.04784e-11
1.96455
1.52974
-6.07013e-11
2.0381
1.48574
-6.18187e-11
2.10061
1.44069
-5.70158e-11
2.15213
1.39497
-5.31971e-11
2.19292
1.34898
-4.44691e-11
2.22342
1.3031
-3.7066e-11
2.24421
1.25766
-2.62686e-11
2.25599
1.21294
-1.75687e-11
2.2595
1.16922
-7.14728e-12
2.25554
1.12667
4.46176e-13
2.24489
1.08547
8.4911e-12
2.22834
1.04573
1.34794e-11
2.2066
1.00752
1.83557e-11
2.18035
0.970903
2.05419e-11
2.15023
0.935896
2.26516e-11
2.11679
0.902501
2.27754e-11
2.08055
0.870701
2.31182e-11
2.04197
0.840466
2.21678e-11
2.00143
0.811757
2.16969e-11
1.95931
0.784525
2.04165e-11
1.91591
0.758716
1.97262e-11
1.87149
0.734274
1.84855e-11
1.82629
0.71114
1.78233e-11
1.78051
0.689252
1.67232e-11
1.73432
0.668553
1.6138e-11
1.68787
0.648981
1.51639e-11
1.64128
0.63048
1.46416e-11
1.59465
0.612994
1.37642e-11
1.54808
0.596469
1.32941e-11
1.50163
0.580854
1.25001e-11
1.45536
0.566099
1.20826e-11
1.40932
0.55216
1.13716e-11
1.36355
0.538991
1.10115e-11
1.31808
0.526551
1.03846e-11
1.27293
0.514802
1.00825e-11
1.22813
0.503707
9.53656e-12
1.18367
0.493232
9.28706e-12
1.13957
0.483344
8.8143e-12
1.09584
0.474015
8.60867e-12
1.05246
0.465216
8.19982e-12
1.00945
0.456921
8.02821e-12
0.96679
0.449105
7.67396e-12
0.92448
0.441747
7.52864e-12
0.882511
0.434824
7.22155e-12
0.840873
0.428318
7.09599e-12
0.799555
0.422211
6.83072e-12
0.758545
0.416485
6.7223e-12
0.717832
0.411125
6.49557e-12
0.6774
0.406117
6.40223e-12
0.637238
0.401447
6.21175e-12
0.59733
0.397103
6.13463e-12
0.557662
0.393073
5.97896e-12
0.51822
0.389348
5.91846e-12
0.478987
0.385918
5.79677e-12
0.43995
0.382773
5.75498e-12
0.401092
0.379907
5.66794e-12
0.362398
0.377312
5.6496e-12
0.323853
0.374982
5.60384e-12
0.285441
0.372911
5.62405e-12
0.247145
0.371094
5.64494e-12
0.208952
0.369527
5.73469e-12
0.170844
0.368206
5.86268e-12
0.132806
0.367129
6.04759e-12
0.0948227
0.366293
6.30807e-12
0.0568783
0.365696
6.88854e-12
0.0189571
0.365339
8.30991e-12
-0.0189563
0.365219
1.18352e-11
-0.0568775
0.365339
6.31763e-12
-0.0948219
0.365696
1.03519e-11
-0.132805
0.366293
4.41371e-12
0.367129
5.81579e-12
0.738355
1.69334
-2.59141e-10
0.863846
1.67668
-2.00466e-10
0.984975
1.65723
-8.35866e-11
1.10109
1.63509
6.17692e-12
1.21155
1.61042
-1.17738e-11
1.31576
1.58338
-4.24485e-11
1.41315
1.55414
-6.73604e-11
1.50322
1.52292
-7.7424e-11
1.58555
1.48996
-8.5507e-11
1.6598
1.45549
-8.59924e-11
1.72575
1.41979
-8.81477e-11
1.7833
1.38314
-8.47282e-11
1.83245
1.34581
-8.35276e-11
1.87336
1.30808
-7.7832e-11
1.90626
1.2702
-7.45668e-11
1.93149
1.23243
-6.79673e-11
1.94946
1.19498
-6.39867e-11
1.96062
1.15805
-5.77974e-11
1.9655
1.1218
-5.42517e-11
1.96458
1.08638
-4.93465e-11
1.9584
1.0519
-4.68324e-11
1.94747
1.01845
-4.34356e-11
1.93227
0.986105
-4.19457e-11
1.91327
0.954899
-3.97634e-11
1.8909
0.924868
-3.8937e-11
1.86557
0.896028
-3.74843e-11
1.83766
0.86838
-3.69222e-11
1.8075
0.841918
-3.57934e-11
1.7754
0.816624
-3.52399e-11
1.74164
0.792475
-3.42088e-11
1.70647
0.769445
-3.3572e-11
1.67011
0.747499
-3.25611e-11
1.63276
0.726604
-3.18496e-11
1.59459
0.706721
-3.0856e-11
1.55576
0.687814
-3.01099e-11
1.51639
0.669842
-2.91489e-11
1.47662
0.652768
-2.84044e-11
1.43654
0.636553
-2.74873e-11
1.39623
0.621159
-2.67653e-11
1.35578
0.60655
-2.58972e-11
1.31525
0.592691
-2.52097e-11
1.27469
0.579546
-2.43932e-11
1.23416
0.567083
-2.37466e-11
1.19369
0.555272
-2.29843e-11
1.15332
0.544081
-2.23842e-11
1.11306
0.533484
-2.16803e-11
1.07296
0.523452
-2.11307e-11
1.03301
0.51396
-2.0488e-11
0.993244
0.504985
-1.99907e-11
0.953661
0.496503
-1.94106e-11
0.914273
0.488494
-1.89651e-11
0.875082
0.480937
-1.84467e-11
0.836092
0.473814
-1.8051e-11
0.797303
0.467107
-1.7592e-11
0.758714
0.4608
-1.72421e-11
0.720321
0.454878
-1.6838e-11
0.68212
0.449326
-1.65299e-11
0.644107
0.44413
-1.61758e-11
0.606275
0.439279
-1.59056e-11
0.568616
0.434761
-1.55966e-11
0.531123
0.430566
-1.53607e-11
0.493787
0.426684
-1.50928e-11
0.4566
0.423105
-1.4889e-11
0.41955
0.419822
-1.46588e-11
0.38263
0.416828
-1.44863e-11
0.345827
0.414115
-1.42917e-11
0.309132
0.411677
-1.41513e-11
0.272535
0.409509
-1.39904e-11
0.236022
0.407606
-1.38836e-11
0.199585
0.405965
-1.3754e-11
0.16321
0.404581
-1.36995e-11
0.126888
0.403452
-1.36486e-11
0.0906054
0.402575
-1.37739e-11
0.0543519
0.40195
-1.37971e-11
0.0181156
0.401575
-1.35229e-11
-0.0181149
0.40145
-1.17576e-11
-0.0543512
0.401575
-1.59108e-11
-0.0906047
0.40195
-1.82688e-11
-0.126887
0.402575
-2.31486e-11
0.403452
-2.7273e-11
0.622357
1.58434
-2.25399e-10
0.728336
1.5707
-1.83218e-10
0.83078
1.55478
-7.27446e-11
0.92919
1.53668
-3.4839e-12
1.02309
1.51653
-1.89211e-11
1.11203
1.49444
-4.24265e-11
1.1956
1.47056
-5.8634e-11
1.27346
1.44507
-6.18795e-11
1.34529
1.41813
-6.31924e-11
1.41085
1.38993
-5.87297e-11
1.46999
1.36066
-5.6204e-11
1.52261
1.33052
-4.97371e-11
1.56869
1.29972
-4.59188e-11
1.60831
1.26846
-3.886e-11
1.64159
1.23692
-3.46404e-11
1.66873
1.20529
-2.78015e-11
1.68997
1.17374
-2.38447e-11
1.70561
1.14241
-1.78476e-11
1.71595
1.11146
-1.46272e-11
1.72134
1.08099
-9.82126e-12
1.72213
1.05111
-7.53427e-12
1.71868
1.02191
-3.95974e-12
1.71133
0.993452
-2.54245e-12
1.70044
0.965798
-1.44587e-14
1.68631
0.93899
7.38558e-13
1.66928
0.913059
2.48683e-12
1.64964
0.888023
2.79837e-12
1.62766
0.863896
4.00763e-12
1.60361
0.84068
4.04542e-12
1.57771
0.818372
4.88801e-12
1.55019
0.796963
4.75868e-12
1.52125
0.776441
5.34734e-12
1.49106
0.756787
5.11404e-12
1.4598
0.737983
5.52445e-12
1.42761
0.720005
5.22982e-12
1.39462
0.702831
5.51714e-12
1.36095
0.686436
5.19207e-12
1.32671
0.670793
5.3982e-12
1.292
0.655878
5.06773e-12
1.25688
0.641663
5.22291e-12
1.22145
0.628125
4.90301e-12
1.18576
0.615236
5.0271e-12
1.14987
0.602973
4.72793e-12
1.11383
0.59131
4.83205e-12
1.07769
0.580226
4.5572e-12
1.04147
0.569696
4.64663e-12
1.00523
0.5597
4.3968e-12
0.968969
0.550217
4.47357e-12
0.932727
0.541227
4.24813e-12
0.89652
0.53271
4.31347e-12
0.860363
0.52465
4.11153e-12
0.824271
0.517029
4.16642e-12
0.788255
0.509831
3.98755e-12
0.752322
0.50304
4.03336e-12
0.716479
0.496643
3.87781e-12
0.680731
0.490626
3.91676e-12
0.645081
0.484976
3.78465e-12
0.609529
0.479682
3.81915e-12
0.574077
0.474732
3.71088e-12
0.538722
0.470116
3.74333e-12
0.503464
0.465825
3.65927e-12
0.468299
0.461849
3.6919e-12
0.433223
0.458181
3.6323e-12
0.398232
0.454813
3.66795e-12
0.363321
0.451738
3.6344e-12
0.328485
0.448951
3.67829e-12
0.293718
0.446444
3.6787e-12
0.259013
0.444214
3.74652e-12
0.224363
0.442256
3.8074e-12
0.189763
0.440565
3.93111e-12
0.155203
0.43914
4.08099e-12
0.120678
0.437977
4.24483e-12
0.0861799
0.437074
4.43175e-12
0.0517004
0.436429
5.0105e-12
0.0172324
0.436043
6.84343e-12
-0.0172318
0.435914
1.20282e-11
-0.0516998
0.436043
3.68614e-12
-0.0861792
0.436429
8.5283e-12
-0.120678
0.437074
-1.03773e-12
0.437977
-2.56877e-13
0.527157
1.49187
-1.24134e-10
0.617199
1.48066
-8.15021e-11
0.704402
1.46758
-5.02811e-12
0.788375
1.45271
5.97765e-11
0.868754
1.43615
3.81643e-11
0.945199
1.41799
1.04511e-11
1.0174
1.39836
-9.83429e-12
1.0851
1.37738
-1.65477e-11
1.14805
1.35517
-2.17673e-11
1.20608
1.33189
-2.10447e-11
1.25906
1.30768
-2.29655e-11
1.3069
1.28268
-2.0829e-11
1.34957
1.25705
-2.19898e-11
1.38709
1.23094
-1.96234e-11
1.41953
1.20448
-2.0521e-11
1.447
1.17782
-1.82829e-11
1.46964
1.15109
-1.90959e-11
1.48764
1.12442
-1.71672e-11
1.50119
1.0979
-1.79881e-11
1.51054
1.07165
-1.64469e-11
1.5159
1.04575
-1.72981e-11
1.51753
1.02027
-1.61283e-11
1.51569
0.995298
-1.69738e-11
1.51061
0.970875