/*--------------------------------*- C++ -*----------------------------------*\
| =========                 |                                                 |
| \\      /  F ield         | OpenFOAM: The Open Source CFD Toolbox           |
|  \\    /   O peration     | Version:  2306                                  |
|   \\  /    A nd           | Website:  www.openfoam.com                      |
|    \\/     M anipulation  |                                                 |
\*---------------------------------------------------------------------------*/
FoamFile
{
    version     2.0;
    format      ascii;
    arch        "LSB;label=32;scalar=64";
    class       volVectorField;
    location    "75";
    object      U;
}
// * * * * * * * * * * * * * * * * * * * * * * * * * * * * * * * * * * * * * //

dimensions      [0 1 -1 0 0 0 0];

internalField   nonuniform List<vector> 
14400
(
(0.0419228 0.496759 4.74946e-10)
(0.051083 0.497076 2.44031e-10)
(0.0606108 0.497649 -7.16844e-11)
(0.0705372 0.498565 -2.46149e-10)
(0.0809022 0.499819 -5.14966e-10)
(0.091741 0.501008 -6.81065e-10)
(0.103083 0.500478 -1.04557e-09)
(0.116255 0.49271 -7.91697e-10)
(0.139844 0.459628 -1.75671e-09)
(0.177752 0.347822 -2.89232e-10)
(0.228407 0.0170897 -7.38427e-10)
(0.0982261 -0.016942 -2.9999e-10)
(0.0933902 0.011956 -2.01823e-10)
(0.0792477 0.0158971 -1.37673e-10)
(0.0643243 0.0122207 -7.76211e-11)
(0.0527766 0.00661972 -4.55916e-11)
(0.0441875 0.00273315 -1.9643e-11)
(0.038329 0.000663029 -8.45751e-12)
(0.0344273 -0.000447413 1.44798e-12)
(0.031765 -0.00100646 4.85923e-12)
(0.0299103 -0.00123359 7.11525e-12)
(0.0285774 -0.001271 5.85098e-12)
(0.0275668 -0.00120722 4.02385e-12)
(0.0267452 -0.00109514 1.57843e-12)
(0.0260281 -0.000965614 -6.46595e-13)
(0.0253643 -0.000835915 -2.14096e-12)
(0.0247245 -0.000714964 -3.28155e-12)
(0.0240931 -0.000606672 -3.58842e-12)
(0.0234626 -0.000512086 -3.78715e-12)
(0.0228304 -0.000430721 -3.46958e-12)
(0.0221966 -0.000361368 -3.28099e-12)
(0.0215622 -0.000302557 -2.84072e-12)
(0.020929 -0.000252805 -2.62496e-12)
(0.0202986 -0.000210739 -2.27529e-12)
(0.0196727 -0.000175145 -2.14333e-12)
(0.0190526 -0.000144978 -1.90791e-12)
(0.0184394 -0.000119354 -1.84855e-12)
(0.0178341 -9.75328e-05 -1.69056e-12)
(0.0172371 -7.88983e-05 -1.66898e-12)
(0.016649 -6.29383e-05 -1.55467e-12)
(0.0160701 -4.92285e-05 -1.548e-12)
(0.0155005 -3.74173e-05 -1.4594e-12)
(0.0149402 -2.72127e-05 -1.45822e-12)
(0.0143891 -1.83719e-05 -1.38782e-12)
(0.0138472 -1.06926e-05 -1.38942e-12)
(0.0133142 -4.0057e-06 -1.33373e-12)
(0.0127899 1.83041e-06 -1.33728e-12)
(0.012274 6.93495e-06 -1.29387e-12)
(0.0117662 1.14084e-05 -1.29863e-12)
(0.0112663 1.53359e-05 -1.2653e-12)
(0.0107739 1.87898e-05 -1.27042e-12)
(0.0102887 2.18314e-05 -1.24528e-12)
(0.0098104 2.45136e-05 -1.25e-12)
(0.0093386 2.68812e-05 -1.23171e-12)
(0.00887301 2.89731e-05 -1.23553e-12)
(0.0084133 3.08226e-05 -1.22333e-12)
(0.00795915 3.24584e-05 -1.22608e-12)
(0.00751025 3.39053e-05 -1.21978e-12)
(0.00706628 3.51848e-05 -1.22156e-12)
(0.00662694 3.63154e-05 -1.22144e-12)
(0.00619192 3.73128e-05 -1.22255e-12)
(0.00576094 3.81908e-05 -1.22926e-12)
(0.00533369 3.89608e-05 -1.23017e-12)
(0.00490991 3.96325e-05 -1.24464e-12)
(0.00448932 4.02136e-05 -1.24595e-12)
(0.00407165 4.07104e-05 -1.26955e-12)
(0.00365663 4.11273e-05 -1.27237e-12)
(0.00324401 4.14674e-05 -1.30705e-12)
(0.00283354 4.17325e-05 -1.31404e-12)
(0.00242498 4.19233e-05 -1.36261e-12)
(0.00201807 4.20406e-05 -1.37914e-12)
(0.0016126 4.20858e-05 -1.44481e-12)
(0.00120831 4.2064e-05 -1.47021e-12)
(0.000804964 4.19866e-05 -1.55136e-12)
(0.000402308 4.18812e-05 -1.58016e-12)
(-3.95213e-09 4.18263e-05 -1.63096e-12)
(-0.000402316 4.1881e-05 -1.83057e-12)
(-0.000804972 4.19862e-05 -4.8021e-13)
(-0.00120832 4.20635e-05 -4.72506e-12)
(-0.00161261 4.20851e-05 -2.51024e-13)
(0.0802732 0.455382 4.2956e-10)
(0.0981705 0.45281 1.77796e-10)
(0.117243 0.449618 -1.04582e-10)
(0.137872 0.44564 -2.87706e-10)
(0.160557 0.440567 -5.51574e-10)
(0.185905 0.433775 -7.68607e-10)
(0.214548 0.42398 -1.05704e-09)
(0.247106 0.408606 -1.21697e-09)
(0.283749 0.382685 -1.21345e-09)
(0.316153 0.3374 -1.20015e-09)
(0.310312 0.269441 -8.71392e-10)
(0.265183 0.200233 -5.01909e-10)
(0.225622 0.128494 -2.99691e-10)
(0.195595 0.0854616 -1.65993e-10)
(0.172845 0.0621594 -8.7648e-11)
(0.155254 0.0471358 -4.77638e-11)
(0.140776 0.0353655 -1.64312e-11)
(0.128625 0.0258866 -6.13183e-12)
(0.11865 0.0187483 6.06243e-12)
(0.110506 0.0136751 8.16487e-12)
(0.103738 0.010201 1.01056e-11)
(0.0979956 0.00789285 7.90833e-12)
(0.0930317 0.0063996 5.22488e-12)
(0.0886575 0.00545505 2.36039e-12)
(0.0847328 0.00486701 -4.77807e-13)
(0.0811556 0.00450262 -2.05862e-12)
(0.077853 0.0042736 -3.46172e-12)
(0.0747725 0.00412345 -3.7025e-12)
(0.071876 0.00401721 -3.96988e-12)
(0.0691356 0.00393402 -3.5508e-12)
(0.0665302 0.0038619 -3.37741e-12)
(0.0640437 0.0037943 -2.85118e-12)
(0.0616633 0.0037279 -2.65696e-12)
(0.0593785 0.00366122 -2.24566e-12)
(0.057181 0.00359382 -2.14927e-12)
(0.0550633 0.00352579 -1.8698e-12)
(0.0530192 0.00345748 -1.85142e-12)
(0.0510433 0.00338932 -1.65949e-12)
(0.0491306 0.00332176 -1.67671e-12)
(0.0472769 0.00325519 -1.53448e-12)
(0.0454782 0.00318997 -1.56121e-12)
(0.0437308 0.00312638 -1.44919e-12)
(0.0420315 0.00306465 -1.47558e-12)
(0.0403772 0.00300495 -1.38574e-12)
(0.0387651 0.0029474 -1.40972e-12)
(0.0371926 0.00289208 -1.3383e-12)
(0.0356572 0.00283904 -1.35987e-12)
(0.0341567 0.0027883 -1.30399e-12)
(0.0326888 0.00273988 -1.32314e-12)
(0.0312516 0.00269374 -1.28007e-12)
(0.0298432 0.00264986 -1.29662e-12)
(0.0284617 0.00260821 -1.26387e-12)
(0.0271056 0.00256874 -1.2777e-12)
(0.0257732 0.00253141 -1.25334e-12)
(0.0244631 0.00249615 -1.26463e-12)
(0.0231737 0.00246292 -1.24734e-12)
(0.0219037 0.00243167 -1.25661e-12)
(0.0206518 0.00240233 -1.2456e-12)
(0.0194168 0.00237486 -1.25366e-12)
(0.0181974 0.00234921 -1.24868e-12)
(0.0169926 0.00232533 -1.25655e-12)
(0.0158012 0.00230316 -1.25769e-12)
(0.0146223 0.00228266 -1.26654e-12)
(0.0134547 0.00226379 -1.27422e-12)
(0.0122975 0.0022465 -1.28527e-12)
(0.0111498 0.00223075 -1.30023e-12)
(0.0100106 0.0022165 -1.31506e-12)
(0.00887908 0.00220373 -1.3385e-12)
(0.00775432 0.00219238 -1.35967e-12)
(0.00663548 0.00218244 -1.39351e-12)
(0.00552172 0.00217389 -1.42511e-12)
(0.00441221 0.00216673 -1.47173e-12)
(0.00330612 0.00216096 -1.51291e-12)
(0.00220263 0.00215665 -1.56805e-12)
(0.00110096 0.00215391 -1.6183e-12)
(1.79215e-08 0.00215295 -1.65455e-12)
(-0.00110092 0.00215391 -1.82088e-12)
(-0.00220259 0.00215665 -9.23169e-13)
(-0.00330608 0.00216096 -3.73091e-12)
(-0.00441217 0.00216672 -1.43826e-12)
(0.0787882 0.405305 1.03147e-10)
(0.0951813 0.400835 4.12858e-11)
(0.111947 0.395144 -5.76784e-11)
(0.129166 0.387915 -1.0128e-10)
(0.146914 0.378705 -1.88257e-10)
(0.165233 0.366914 -2.30015e-10)
(0.184055 0.351769 -3.10791e-10)
(0.203051 0.332414 -3.26423e-10)
(0.221235 0.308268 -3.47614e-10)
(0.236041 0.279424 -3.01949e-10)
(0.243337 0.246467 -2.4121e-10)
(0.242225 0.211676 -1.77248e-10)
(0.235111 0.175939 -1.181e-10)
(0.223803 0.142558 -7.61592e-11)
(0.210823 0.113766 -3.87001e-11)
(0.198182 0.0904156 -2.32584e-11)
(0.186476 0.0720492 -4.49117e-12)
(0.175671 0.0576741 -3.18392e-13)
(0.165728 0.0464954 7.09833e-12)
(0.15664 0.0379573 6.43736e-12)
(0.148341 0.0315549 6.55898e-12)
(0.140752 0.026813 3.81959e-12)
(0.133799 0.0233161 1.2492e-12)
(0.127412 0.0207252 -1.1146e-12)
(0.121524 0.0187798 -3.19734e-12)
(0.116074 0.0172877 -4.2009e-12)
(0.111007 0.0161122 -4.96714e-12)
(0.106277 0.0151587 -4.89092e-12)
(0.101843 0.0143626 -4.79509e-12)
(0.0976715 0.0136803 -4.27953e-12)
(0.0937324 0.0130826 -3.92521e-12)
(0.0900007 0.0125497 -3.40184e-12)
(0.0864548 0.012068 -3.10451e-12)
(0.0830763 0.011628 -2.7181e-12)
(0.0798489 0.0112229 -2.54379e-12)
(0.0767589 0.0108479 -2.28412e-12)
(0.0737939 0.0104991 -2.19772e-12)
(0.0709434 0.0101738 -2.01761e-12)
(0.0681978 0.00986955 -1.97538e-12)
(0.0655486 0.00958455 -1.8401e-12)
(0.0629885 0.00931724 -1.81658e-12)
(0.0605106 0.00906627 -1.70911e-12)
(0.0581089 0.00883049 -1.69395e-12)
(0.0557778 0.00860887 -1.60735e-12)
(0.0535123 0.00840048 -1.59723e-12)
(0.0513079 0.00820451 -1.52807e-12)
(0.0491603 0.00802021 -1.52162e-12)
(0.0470657 0.00784689 -1.46721e-12)
(0.0450204 0.00768392 -1.46326e-12)
(0.0430213 0.00753073 -1.42103e-12)
(0.0410652 0.00738679 -1.41855e-12)
(0.0391493 0.00725162 -1.38621e-12)
(0.0372709 0.00712475 -1.38441e-12)
(0.0354274 0.00700578 -1.36019e-12)
(0.0336166 0.00689432 -1.35874e-12)
(0.0318362 0.00679002 -1.3414e-12)
(0.0300842 0.00669255 -1.34043e-12)
(0.0283585 0.00660161 -1.32923e-12)
(0.0266573 0.00651692 -1.32925e-12)
(0.0249788 0.00643823 -1.32388e-12)
(0.0233213 0.0063653 -1.32569e-12)
(0.0216832 0.00629791 -1.32616e-12)
(0.0200629 0.00623586 -1.33076e-12)
(0.0184589 0.00617897 -1.33734e-12)
(0.0168699 0.00612709 -1.34593e-12)
(0.0152943 0.00608004 -1.35919e-12)
(0.0137309 0.0060377 -1.37336e-12)
(0.0121784 0.00599995 -1.39429e-12)
(0.0106354 0.00596668 -1.41698e-12)
(0.00910073 0.00593782 -1.44708e-12)
(0.00757319 0.00591329 -1.48327e-12)
(0.00605154 0.00589306 -1.52482e-12)
(0.00453457 0.00587715 -1.57244e-12)
(0.00302113 0.00586559 -1.62502e-12)
(0.00151015 0.0058585 -1.67671e-12)
(2.57098e-08 0.00585609 -1.7026e-12)
(-0.0015101 0.0058585 -1.9554e-12)
(-0.00302108 0.00586559 -6.19727e-13)
(-0.00453452 0.00587714 -4.78252e-12)
(-0.00605148 0.00589306 -4.99898e-13)
(0.0731008 0.364702 1.53022e-11)
(0.0879254 0.35993 2.38614e-12)
(0.102837 0.353969 -2.26545e-11)
(0.117806 0.346602 -3.18946e-11)
(0.132764 0.337555 -5.5316e-11)
(0.147575 0.326511 -6.36898e-11)
(0.162002 0.31314 -8.41183e-11)
(0.175665 0.29717 -8.57111e-11)
(0.188032 0.278488 -9.10405e-11)
(0.198454 0.257193 -8.20632e-11)
(0.20625 0.233606 -7.16819e-11)
(0.210911 0.208456 -5.65985e-11)
(0.212241 0.182686 -3.84328e-11)
(0.210464 0.157573 -2.65606e-11)
(0.206235 0.134226 -1.07069e-11)
(0.200306 0.113504 -4.80578e-12)
(0.19333 0.0958951 5.05189e-12)
(0.185797 0.0813957 6.47917e-12)
(0.178033 0.0696672 9.67435e-12)
(0.170258 0.0602773 8.10256e-12)
(0.162634 0.0528069 6.93808e-12)
(0.155274 0.0468726 4.41982e-12)
(0.148249 0.0421399 2.1228e-12)
(0.141593 0.0383311 2.43514e-13)
(0.135314 0.0352257 -1.27401e-12)
(0.129404 0.0326543 -2.03505e-12)
(0.123845 0.0304903 -2.51967e-12)
(0.118611 0.0286401 -2.51959e-12)
(0.113678 0.0270352 -2.41427e-12)
(0.109019 0.0256255 -2.13275e-12)
(0.10461 0.0243736 -1.88375e-12)
(0.100427 0.023252 -1.61039e-12)
(0.0964494 0.0222394 -1.42402e-12)
(0.0926592 0.0213195 -1.24251e-12)
(0.0890393 0.0204794 -1.14862e-12)
(0.0855746 0.0197089 -1.04224e-12)
(0.0822518 0.0189995 -1.0077e-12)
(0.0790591 0.0183444 -9.41599e-13)
(0.0759857 0.0177378 -9.33213e-13)
(0.0730222 0.0171749 -8.85017e-13)
(0.0701598 0.0166516 -8.85233e-13)
(0.067391 0.0161643 -8.46036e-13)
(0.0647086 0.01571 -8.48656e-13)
(0.0621064 0.0152858 -8.16251e-13)
(0.0595785 0.0148895 -8.19861e-13)
(0.0571196 0.014519 -7.9393e-13)
(0.0547251 0.0141723 -7.98179e-13)
(0.0523903 0.0138478 -7.78299e-13)
(0.0501112 0.0135441 -7.82764e-13)
(0.047884 0.0132597 -7.68228e-13)
(0.0457052 0.0129934 -7.72441e-13)
(0.0435716 0.0127441 -7.62424e-13)
(0.04148 0.0125109 -7.66088e-13)
(0.0394277 0.0122928 -7.59985e-13)
(0.0374119 0.0120889 -7.63114e-13)
(0.0354303 0.0118986 -7.60531e-13)
(0.0334803 0.0117212 -7.63479e-13)
(0.0315598 0.011556 -7.64316e-13)
(0.0296666 0.0114024 -7.67722e-13)
(0.0277988 0.0112599 -7.72078e-13)
(0.0259544 0.0111281 -7.76756e-13)
(0.0241316 0.0110064 -7.84866e-13)
(0.0223287 0.0108946 -7.91798e-13)
(0.0205439 0.0107923 -8.04065e-13)
(0.0187757 0.0106991 -8.14335e-13)
(0.0170225 0.0106148 -8.3123e-13)
(0.0152828 0.010539 -8.45947e-13)
(0.013555 0.0104717 -8.6802e-13)
(0.0118379 0.0104125 -8.88355e-13)
(0.01013 0.0103613 -9.16023e-13)
(0.0084299 0.010318 -9.42477e-13)
(0.00673626 0.0102826 -9.75284e-13)
(0.00504775 0.0102549 -1.00383e-12)
(0.00336308 0.010235 -1.03432e-12)
(0.00168111 0.010223 -1.06446e-12)
(2.69357e-08 0.0102189 -1.08046e-12)
(-0.00168106 0.010223 -1.1747e-12)
(-0.00336303 0.010235 -6.89997e-13)
(-0.00504769 0.0102549 -2.1941e-12)
(-0.0067362 0.0102826 -1.3621e-12)
(0.0670981 0.328167 2.11334e-12)
(0.0804489 0.323395 -3.93032e-14)
(0.0937244 0.317536 -1.04681e-11)
(0.106865 0.310453 -1.45053e-11)
(0.119777 0.301993 -2.36653e-11)
(0.132327 0.291996 -2.76193e-11)
(0.144323 0.280321 -3.58567e-11)
(0.155522 0.266884 -3.75187e-11)
(0.165634 0.251696 -4.06471e-11)
(0.174351 0.234894 -3.86442e-11)
(0.181375 0.216749 -3.5021e-11)
(0.186449 0.197686 -3.05622e-11)
(0.189407 0.178282 -2.26559e-11)
(0.190221 0.159256 -1.81031e-11)
(0.189042 0.141326 -1.00594e-11)
(0.186159 0.125051 -7.13617e-12)
(0.181945 0.110719 -2.07981e-12)
(0.176783 0.098358 -1.27431e-12)
(0.171011 0.0878307 5.71606e-14)
(0.164899 0.0789278 -6.3587e-13)
(0.158652 0.0714208 -1.44937e-12)
(0.152424 0.0650864 -2.48532e-12)
(0.146318 0.059721 -3.64163e-12)
(0.140402 0.0551479 -4.2167e-12)
(0.134714 0.0512198 -4.79507e-12)
(0.129274 0.0478171 -4.76405e-12)
(0.124084 0.0448444 -4.74314e-12)
(0.11914 0.0422265 -4.35818e-12)
(0.114431 0.0399039 -4.05796e-12)
(0.109946 0.0378297 -3.60128e-12)
(0.105668 0.0359664 -3.28457e-12)
(0.101584 0.0342838 -2.9043e-12)
(0.0976803 0.0327573 -2.67461e-12)
(0.0939422 0.0313667 -2.39793e-12)
(0.0903576 0.0300954 -2.25561e-12)
(0.0869147 0.0289293 -2.05743e-12)
(0.0836028 0.0278567 -1.9714e-12)
(0.0804121 0.0268675 -1.82213e-12)
(0.0773336 0.0259532 -1.76613e-12)
(0.074359 0.0251064 -1.6472e-12)
(0.0714808 0.0243206 -1.60713e-12)
(0.068692 0.0235904 -1.50981e-12)
(0.0659864 0.022911 -1.47965e-12)
(0.0633581 0.0222779 -1.39996e-12)
(0.0608018 0.0216876 -1.3771e-12)
(0.0583127 0.0211365 -1.31259e-12)
(0.0558861 0.0206219 -1.29536e-12)
(0.0535179 0.020141 -1.24383e-12)
(0.0512042 0.0196914 -1.23083e-12)
(0.0489414 0.019271 -1.19025e-12)
(0.0467261 0.0188779 -1.18027e-12)
(0.0445552 0.0185104 -1.14881e-12)
(0.0424257 0.0181669 -1.14105e-12)
(0.0403348 0.017846 -1.11738e-12)
(0.0382801 0.0175463 -1.11148e-12)
(0.036259 0.0172669 -1.0946e-12)
(0.0342692 0.0170064 -1.09061e-12)
(0.0323086 0.0167642 -1.07996e-12)
(0.0303751 0.0165391 -1.07825e-12)
(0.0284666 0.0163305 -1.07359e-12)
(0.0265814 0.0161376 -1.07475e-12)
(0.0247176 0.0159598 -1.07604e-12)
(0.0228734 0.0157964 -1.08092e-12)
(0.0210473 0.015647 -1.0884e-12)
(0.0192376 0.0155111 -1.09802e-12)
(0.0174428 0.0153881 -1.11216e-12)
(0.0156614 0.0152778 -1.12794e-12)
(0.0138919 0.0151799 -1.14954e-12)
(0.0121328 0.0150939 -1.17382e-12)
(0.0103829 0.0150197 -1.20388e-12)
(0.00864077 0.0149571 -1.24023e-12)
(0.00690502 0.014906 -1.27995e-12)
(0.00517435 0.0148662 -1.32437e-12)
(0.0034475 0.0148377 -1.37351e-12)
(0.00172333 0.0148205 -1.41414e-12)
(2.64646e-08 0.0148148 -1.43807e-12)
(-0.00172328 0.0148205 -1.68238e-12)
(-0.00344745 0.0148377 -3.75986e-13)
(-0.0051743 0.0148662 -4.42137e-12)
(-0.00690497 0.014906 -4.08443e-14)
(0.060434 0.294493 1.3474e-11)
(0.0722767 0.289987 8.99665e-12)
(0.0839501 0.284535 5.2815e-13)
(0.0953874 0.278066 -1.80494e-12)
(0.106499 0.270506 -6.26941e-12)
(0.117168 0.26179 -7.86439e-12)
(0.12725 0.251877 -1.12715e-11)
(0.136572 0.240769 -1.16863e-11)
(0.144944 0.228534 -1.2585e-11)
(0.152173 0.215317 -1.15242e-11)
(0.158075 0.201343 -9.41192e-12)
(0.162502 0.186923 -7.41713e-12)
(0.165365 0.172425 -3.54753e-12)
(0.166653 0.158246 -1.6886e-12)
(0.166459 0.144743 1.85345e-12)
(0.164959 0.132185 2.71317e-12)
(0.162386 0.120733 4.48892e-12)
(0.158987 0.110439 4.19427e-12)
(0.154992 0.101278 4.17835e-12)
(0.150597 0.0931748 3.22024e-12)
(0.145961 0.0860293 2.3499e-12)
(0.141206 0.0797316 1.39769e-12)
(0.136426 0.0741737 5.56237e-13)
(0.131687 0.0692553 -3.23435e-14)
(0.127034 0.0648876 -4.31062e-13)
(0.122496 0.0609937 -6.17844e-13)
(0.118091 0.0575083 -6.67282e-13)
(0.113828 0.0543762 -6.36464e-13)
(0.109711 0.051551 -5.33567e-13)
(0.105739 0.0489935 -4.45103e-13)
(0.101909 0.0466707 -3.34069e-13)
(0.0982146 0.0445545 -2.66628e-13)
(0.0946514 0.0426208 -1.98508e-13)
(0.0912125 0.0408493 -1.6497e-13)
(0.0878914 0.0392223 -1.37134e-13)
(0.0846814 0.0377245 -1.25127e-13)
(0.081576 0.0363428 -1.20141e-13)
(0.0785691 0.0350656 -1.16149e-13)
(0.0756546 0.0338829 -1.2053e-13)
(0.0728268 0.032786 -1.17773e-13)
(0.0700805 0.0317672 -1.25044e-13)
(0.0674106 0.0308195 -1.22057e-13)
(0.0648124 0.0299371 -1.30331e-13)
(0.0622814 0.0291146 -1.27834e-13)
(0.0598135 0.0283473 -1.36585e-13)
(0.0574047 0.0276309 -1.35314e-13)
(0.0550514 0.0269616 -1.44196e-13)
(0.0527502 0.0263361 -1.44556e-13)
(0.0504979 0.0257512 -1.53238e-13)
(0.0482913 0.0252044 -1.55273e-13)
(0.0461278 0.024693 -1.63423e-13)
(0.0440045 0.0242149 -1.67142e-13)
(0.0419189 0.023768 -1.74678e-13)
(0.0398687 0.0233504 -1.80079e-13)
(0.0378515 0.0229606 -1.87128e-13)
(0.0358652 0.022597 -1.94319e-13)
(0.0339078 0.0222582 -2.01284e-13)
(0.0319772 0.021943 -2.10478e-13)
(0.0300717 0.0216503 -2.17917e-13)
(0.0281895 0.0213789 -2.29376e-13)
(0.0263288 0.0211281 -2.37956e-13)
(0.0244879 0.0208968 -2.52011e-13)
(0.0226654 0.0206844 -2.62511e-13)
(0.0208597 0.0204902 -2.79484e-13)
(0.0190693 0.0203135 -2.92697e-13)
(0.0172927 0.0201538 -3.12984e-13)
(0.0155287 0.0200106 -3.29621e-13)
(0.0137758 0.0198834 -3.53488e-13)
(0.0120327 0.0197719 -3.73712e-13)
(0.0102981 0.0196758 -4.00943e-13)
(0.00857082 0.0195948 -4.23293e-13)
(0.00684952 0.0195286 -4.52447e-13)
(0.00513299 0.0194772 -4.71715e-13)
(0.00342004 0.0194405 -4.95755e-13)
(0.00170963 0.0194185 -5.11199e-13)
(2.44613e-08 0.0194111 -5.26517e-13)
(-0.00170959 0.0194185 -5.63392e-13)
(-0.00342 0.0194405 -3.72047e-13)
(-0.00513294 0.0194772 -9.75236e-13)
(-0.00684948 0.0195286 -9.5401e-13)
(0.0529028 0.264542 8.83271e-12)
(0.0631234 0.260519 1.07622e-11)
(0.0731199 0.255713 1.77754e-12)
(0.0828277 0.250097 2.08736e-13)
(0.0921684 0.24365 -2.52194e-12)
(0.101048 0.236363 -3.66741e-12)
(0.109359 0.228244 -5.33582e-12)
(0.116983 0.219333 -5.8277e-12)
(0.123795 0.209706 -6.1716e-12)
(0.129678 0.19948 -5.98949e-12)
(0.13453 0.188815 -5.03227e-12)
(0.138278 0.177902 -4.429e-12)
(0.140892 0.166954 -2.85221e-12)
(0.142388 0.156182 -2.27474e-12)
(0.142834 0.145779 -9.35358e-13)
(0.14234 0.135898 -7.00947e-13)
(0.141041 0.126645 -1.92665e-13)
(0.139081 0.118074 -3.58658e-13)
(0.1366 0.1102 -5.16749e-13)
(0.133725 0.103005 -8.55157e-13)
(0.130564 0.0964547 -1.26228e-12)
(0.127207 0.0905019 -1.50926e-12)
(0.123726 0.0850954 -1.80121e-12)
(0.120178 0.0801839 -1.85098e-12)
(0.116607 0.0757183 -1.92179e-12)
(0.113045 0.071653 -1.80988e-12)
(0.109517 0.0679466 -1.72746e-12)
(0.106038 0.0645619 -1.5476e-12)
(0.102622 0.0614656 -1.41558e-12)
(0.0992762 0.0586284 -1.24105e-12)
(0.0960051 0.0560238 -1.12613e-12)
(0.0928119 0.0536288 -9.88081e-13)
(0.0896973 0.0514226 -9.0954e-13)
(0.0866612 0.0493872 -8.07054e-13)
(0.0837025 0.0475061 -7.58726e-13)
(0.0808192 0.0457651 -6.81141e-13)
(0.0780092 0.0441514 -6.51976e-13)
(0.0752699 0.0426537 -5.90557e-13)
(0.0725986 0.0412617 -5.72581e-13)
(0.0699923 0.0399666 -5.22333e-13)
(0.0674482 0.0387603 -5.11307e-13)
(0.0649634 0.0376355 -4.70168e-13)
(0.0625351 0.0365858 -4.63989e-13)
(0.0601603 0.0356056 -4.30737e-13)
(0.0578364 0.0346894 -4.28048e-13)
(0.0555608 0.0338328 -4.0179e-13)
(0.0533309 0.0330314 -4.01606e-13)
(0.0511442 0.0322815 -3.81485e-13)
(0.0489984 0.0315795 -3.82934e-13)
(0.0468912 0.0309225 -3.68093e-13)
(0.0448205 0.0303076 -3.70523e-13)
(0.0427842 0.0297321 -3.60213e-13)
(0.0407803 0.0291939 -3.6324e-13)
(0.0388068 0.0286906 -3.56929e-13)
(0.036862 0.0282205 -3.60473e-13)
(0.0349441 0.0277818 -3.57811e-13)
(0.0330514 0.0273727 -3.62035e-13)
(0.0311823 0.026992 -3.62837e-13)
(0.0293353 0.0266383 -3.68087e-13)
(0.0275087 0.0263103 -3.72296e-13)
(0.0257012 0.026007 -3.79008e-13)
(0.0239113 0.0257273 -3.86635e-13)
(0.0221377 0.0254704 -3.95342e-13)
(0.020379 0.0252354 -4.06483e-13)
(0.0186341 0.0250216 -4.17817e-13)
(0.0169015 0.0248284 -4.32668e-13)
(0.0151801 0.0246551 -4.4743e-13)
(0.0134687 0.0245012 -4.66297e-13)
(0.0117661 0.0243664 -4.85858e-13)
(0.0100712 0.0242501 -5.08798e-13)
(0.00838279 0.0241522 -5.34906e-13)
(0.0066998 0.0240723 -5.63128e-13)
(0.0050211 0.0240102 -5.93789e-13)
(0.00334564 0.023966 -6.27632e-13)
(0.00167248 0.0239394 -6.52379e-13)
(2.26232e-08 0.0239305 -6.7311e-13)
(-0.00167243 0.0239394 -8.42007e-13)
(-0.00334559 0.023966 1.92295e-14)
(-0.00502105 0.0240102 -2.66486e-12)
(-0.00669975 0.0240723 4.29301e-13)
(0.0451523 0.239221 2.82373e-11)
(0.0537775 0.235776 2.47231e-11)
(0.0621644 0.231699 1.27012e-11)
(0.070258 0.226989 1.1111e-11)
(0.0779959 0.221651 9.12135e-12)
(0.0853093 0.215698 8.45621e-12)
(0.0921239 0.209159 7.49178e-12)
(0.098363 0.202077 7.22417e-12)
(0.103952 0.194517 6.81468e-12)
(0.108824 0.186564 6.69154e-12)
(0.112925 0.178321 6.66937e-12)
(0.116223 0.169908 6.55396e-12)
(0.118708 0.16145 6.6491e-12)
(0.120397 0.153071 6.40052e-12)
(0.121334 0.144882 6.33793e-12)
(0.121581 0.136978 5.89909e-12)
(0.121217 0.129428 5.57369e-12)
(0.120324 0.122279 5.00874e-12)
(0.118988 0.115556 4.52873e-12)
(0.117287 0.109266 3.97107e-12)
(0.115294 0.103406 3.51284e-12)
(0.113072 0.0979605 3.06901e-12)
(0.110673 0.0929104 2.74527e-12)
(0.108145 0.0882326 2.44303e-12)
(0.105525 0.0839029 2.25914e-12)
(0.102842 0.0798964 2.054e-12)
(0.100122 0.076189 1.95615e-12)
(0.0973851 0.0727575 1.82297e-12)
(0.0946466 0.0695799 1.78325e-12)
(0.091919 0.0666358 1.68916e-12)
(0.0892118 0.063906 1.65201e-12)
(0.0865326 0.0613729 1.55462e-12)
(0.0838866 0.0590205 1.51086e-12)
(0.0812781 0.0568339 1.42104e-12)
(0.0787097 0.0547996 1.37534e-12)
(0.0761834 0.0529054 1.29568e-12)
(0.0737001 0.05114 1.25117e-12)
(0.0712602 0.0494933 1.18259e-12)
(0.0688639 0.0479561 1.14104e-12)
(0.0665105 0.0465199 1.08275e-12)
(0.0641995 0.0451773 1.04457e-12)
(0.0619298 0.0439212 9.94829e-13)
(0.0597003 0.0427455 9.59898e-13)
(0.0575098 0.0416444 9.17028e-13)
(0.055357 0.0406127 8.85151e-13)
(0.0532405 0.0396459 8.47668e-13)
(0.0511588 0.0387395 8.1876e-13)
(0.0491105 0.0378896 7.85578e-13)
(0.0470942 0.0370928 7.59539e-13)
(0.0451084 0.0363457 7.29757e-13)
(0.0431516 0.0356454 7.0649e-13)
(0.0412225 0.0349892 6.79426e-13)
(0.0393197 0.0343747 6.5867e-13)
(0.0374417 0.0337994 6.33693e-13)
(0.0355873 0.0332615 6.15103e-13)
(0.0337551 0.032759 5.91692e-13)
(0.0319439 0.0322901 5.74811e-13)
(0.0301524 0.0318533 5.52489e-13)
(0.0283794 0.0314471 5.36838e-13)
(0.0266237 0.0310703 5.15207e-13)
(0.0248841 0.0307215 5.00304e-13)
(0.0231595 0.0303998 4.79085e-13)
(0.0214488 0.0301041 4.6446e-13)
(0.0197509 0.0298336 4.43431e-13)
(0.0180647 0.0295874 4.28694e-13)
(0.0163891 0.0293648 4.07747e-13)
(0.0147232 0.0291651 3.92698e-13)
(0.0130659 0.0289878 3.71533e-13)
(0.0114162 0.0288324 3.55805e-13)
(0.00977308 0.0286984 3.39413e-13)
(0.00813566 0.0285855 3.33635e-13)
(0.00650294 0.0284935 3.1077e-13)
(0.00487394 0.0284221 2.99067e-13)
(0.00324776 0.0283711 2.92467e-13)
(0.0016236 0.0283405 2.92137e-13)
(2.02029e-08 0.0283303 2.8076e-13)
(-0.00162355 0.0283405 3.28618e-13)
(-0.00324772 0.0283711 1.55156e-14)
(-0.0048739 0.0284221 9.43985e-13)
(-0.0065029 0.0284935 -4.82113e-13)
(0.0380206 0.218013 2.47005e-11)
(0.0452323 0.215136 2.42141e-11)
(0.0522218 0.211752 1.24248e-11)
(0.0589451 0.207873 1.12853e-11)
(0.0653556 0.203513 9.69838e-12)
(0.0714046 0.198695 9.06031e-12)
(0.0770427 0.193447 8.21791e-12)
(0.0822216 0.18781 7.77758e-12)
(0.0868963 0.181833 7.14227e-12)
(0.0910286 0.175577 6.71045e-12)
(0.0945897 0.169109 6.17146e-12)
(0.097563 0.162505 5.7302e-12)
(0.0999456 0.155842 5.23449e-12)
(0.101749 0.149197 4.7792e-12)
(0.102998 0.142637 4.28616e-12)
(0.10373 0.136225 3.83275e-12)
(0.103987 0.13001 3.35028e-12)
(0.103821 0.124029 2.93829e-12)
(0.103281 0.118308 2.51452e-12)
(0.102417 0.112864 2.18518e-12)
(0.101276 0.107703 1.86588e-12)
(0.0999024 0.102829 1.63648e-12)
(0.0983349 0.0982354 1.43205e-12)
(0.0966082 0.0939165 1.28978e-12)
(0.0947528 0.089862 1.17589e-12)
(0.0927951 0.08606 1.09095e-12)
(0.0907575 0.0824981 1.03068e-12)
(0.0886594 0.0791629 9.76436e-13)
(0.0865171 0.0760413 9.41107e-13)
(0.0843442 0.0731201 9.00413e-13)
(0.0821523 0.0703864 8.72331e-13)
(0.0799508 0.067828 8.36761e-13)
(0.0777476 0.0654332 8.09862e-13)
(0.0755489 0.0631909 7.78527e-13)
(0.0733601 0.0610908 7.51933e-13)
(0.0711853 0.059123 7.24892e-13)
(0.0690276 0.0572785 6.98877e-13)
(0.0668896 0.055549 6.75858e-13)
(0.0647733 0.0539265 6.50616e-13)
(0.06268 0.052404 6.30865e-13)
(0.0606107 0.0509746 6.0645e-13)
(0.058566 0.0496323 5.89085e-13)
(0.0565462 0.0483715 5.65569e-13)
(0.0545513 0.0471868 5.49851e-13)
(0.0525812 0.0460736 5.2745e-13)
(0.0506357 0.0450273 5.12887e-13)
(0.0487143 0.0440439 4.91853e-13)
(0.0468164 0.0431198 4.7812e-13)
(0.0449414 0.0422514 4.58688e-13)
(0.0430887 0.0414355 4.45526e-13)
(0.0412575 0.0406694 4.2778e-13)
(0.0394469 0.0399502 4.15022e-13)
(0.0376563 0.0392756 3.9893e-13)
(0.0358847 0.0386432 3.86374e-13)
(0.0341314 0.038051 3.71755e-13)
(0.0323953 0.037497 3.59239e-13)
(0.0306758 0.0369796 3.45833e-13)
(0.0289718 0.036497 3.33171e-13)
(0.0272826 0.0360479 3.20652e-13)
(0.0256072 0.0356307 3.07723e-13)
(0.0239448 0.0352444 2.95763e-13)
(0.0222946 0.0348878 2.82459e-13)
(0.0206556 0.0345598 2.7075e-13)
(0.0190271 0.0342595 2.57012e-13)
(0.0174082 0.0339861 2.45238e-13)
(0.015798 0.0337387 2.31031e-13)
(0.0141958 0.0335168 2.18821e-13)
(0.0126007 0.0333197 2.04094e-13)
(0.0110119 0.0331469 1.90773e-13)
(0.00942862 0.0329979 1.75775e-13)
(0.00785004 0.0328723 1.60508e-13)
(0.00627536 0.0327699 1.44201e-13)
(0.0047038 0.0326905 1.26544e-13)
(0.00313458 0.0326338 1.06753e-13)
(0.00156707 0.0325998 9.43069e-14)
(1.83776e-08 0.0325885 7.79573e-14)
(-0.00156703 0.0325998 -1.40508e-15)
(-0.00313455 0.0326338 3.409e-13)
(-0.00470376 0.0326905 -7.71132e-13)
(-0.00627532 0.0327699 7.99436e-13)
(0.0318851 0.200288 3.02042e-11)
(0.0379137 0.197919 2.77526e-11)
(0.0437499 0.195144 1.58488e-11)
(0.0493595 0.191978 1.47888e-11)
(0.0547082 0.188437 1.34363e-11)
(0.0597616 0.184544 1.29242e-11)
(0.0644864 0.180324 1.21609e-11)
(0.0688512 0.175811 1.17747e-11)
(0.0728282 0.17104 1.10613e-11)
(0.076394 0.166056 1.06125e-11)
(0.0795319 0.160904 9.8947e-12)
(0.0822321 0.155633 9.40069e-12)
(0.0844931 0.150295 8.70875e-12)
(0.0863212 0.144937 8.2004e-12)
(0.0877307 0.139607 7.56146e-12)
(0.088742 0.134346 7.06889e-12)
(0.0893809 0.12919 6.50897e-12)
(0.0896764 0.124168 6.0597e-12)
(0.0896596 0.119304 5.59869e-12)
(0.089362 0.114615 5.21032e-12)
(0.088815 0.110113 4.85296e-12)
(0.0880481 0.105805 4.52835e-12)
(0.0870895 0.101696 4.26208e-12)
(0.0859652 0.0977853 3.99203e-12)
(0.0846986 0.0940715 3.79407e-12)
(0.0833113 0.0905505 3.56497e-12)
(0.0818224 0.0872171 3.41228e-12)
(0.0802487 0.0840648 3.21282e-12)
(0.0786054 0.0810864 3.0885e-12)
(0.0769054 0.0782745 2.91201e-12)
(0.0751602 0.075621 2.80604e-12)
(0.0733799 0.0731182 2.64946e-12)
(0.0715728 0.0707581 2.55672e-12)
(0.0697464 0.068533 2.41859e-12)
(0.0679068 0.0664354 2.33638e-12)
(0.0660595 0.0644582 2.21539e-12)
(0.0642089 0.0625943 2.14197e-12)
(0.0623588 0.0608374 2.03645e-12)
(0.0605123 0.0591811 1.97049e-12)
(0.058672 0.0576197 1.87857e-12)
(0.0568399 0.0561476 1.8191e-12)
(0.0550179 0.0547596 1.73895e-12)
(0.0532073 0.053451 1.68529e-12)
(0.051409 0.0522172 1.61527e-12)
(0.0496239 0.051054 1.56697e-12)
(0.0478526 0.0499575 1.50563e-12)
(0.0460954 0.0489241 1.46238e-12)
(0.0443525 0.0479504 1.40852e-12)
(0.042624 0.0470331 1.37001e-12)
(0.0409099 0.0461694 1.32256e-12)
(0.03921 0.0453567 1.28848e-12)
(0.0375241 0.0445922 1.24655e-12)
(0.0358519 0.0438738 1.21654e-12)
(0.0341931 0.0431992 1.17932e-12)
(0.0325471 0.0425665 1.15297e-12)
(0.0309136 0.0419738 1.11983e-12)
(0.0292922 0.0414194 1.09676e-12)
(0.0276822 0.0409018 1.06718e-12)
(0.0260831 0.0404194 1.047e-12)
(0.0244945 0.0399709 1.02061e-12)
(0.0229156 0.0395552 1.00301e-12)
(0.021346 0.039171 9.79541e-13)
(0.0197851 0.0388174 9.64286e-13)
(0.0182322 0.0384935 9.43668e-13)
(0.0166867 0.0381983 9.30677e-13)
(0.015148 0.0379311 9.12983e-13)
(0.0136156 0.0376913 9.02482e-13)
(0.0120887 0.0374782 8.88095e-13)
(0.0105668 0.0372913 8.81177e-13)
(0.00904919 0.0371301 8.7096e-13)
(0.00753533 0.0369943 8.70302e-13)
(0.00602456 0.0368835 8.65773e-13)
(0.00451626 0.0367975 8.7183e-13)
(0.00300982 0.0367362 8.74488e-13)
(0.00150476 0.0366994 8.82619e-13)
(1.62164e-08 0.0366871 8.73804e-13)
(-0.00150472 0.0366994 9.80666e-13)
(-0.00300979 0.0367362 3.0464e-13)
(-0.00451622 0.0367975 2.33772e-12)
(-0.00602453 0.0368835 -2.64669e-14)
(0.0267716 0.185443 2.88412e-11)
(0.0318317 0.183503 2.61985e-11)
(0.0367318 0.181237 1.51395e-11)
(0.0414457 0.178658 1.41789e-11)
(0.0459477 0.175782 1.2929e-11)
(0.0502132 0.172627 1.23669e-11)
(0.0542188 0.169216 1.15907e-11)
(0.0579431 0.165573 1.11082e-11)
(0.0613677 0.161726 1.03476e-11)
(0.0644773 0.157707 9.81292e-12)
(0.0672608 0.153548 9.04838e-12)
(0.0697117 0.149282 8.50029e-12)
(0.0718282 0.144945 7.78118e-12)
(0.0736134 0.140569 7.25633e-12)
(0.075075 0.136188 6.6169e-12)
(0.0762247 0.131831 6.13925e-12)
(0.0770774 0.127524 5.59904e-12)
(0.0776507 0.123291 5.18221e-12)
(0.0779639 0.119151 4.74652e-12)
(0.0780373 0.11512 4.39415e-12)
(0.0778915 0.111211 4.05528e-12)
(0.077547 0.107433 3.76248e-12)
(0.0770237 0.103793 3.50395e-12)
(0.0763405 0.100294 3.26105e-12)
(0.0755155 0.0969406 3.06348e-12)
(0.0745652 0.0937315 2.86009e-12)
(0.0735053 0.0906662 2.70613e-12)
(0.0723497 0.0877425 2.53382e-12)
(0.0711114 0.0849575 2.41039e-12)
(0.069802 0.0823074 2.26328e-12)
(0.068432 0.079788 2.16149e-12)
(0.0670106 0.0773947 2.03554e-12)
(0.0655461 0.0751226 1.94955e-12)
(0.064046 0.0729667 1.84172e-12)
(0.0625167 0.0709222 1.76763e-12)
(0.0609639 0.0689838 1.67534e-12)
(0.0593925 0.0671469 1.61043e-12)
(0.057807 0.0654064 1.53133e-12)
(0.0562111 0.0637578 1.47374e-12)
(0.054608 0.0621965 1.40578e-12)
(0.0530005 0.0607184 1.3543e-12)
(0.051391 0.0593191 1.2957e-12)
(0.0497816 0.057995 1.24955e-12)
(0.0481739 0.0567421 1.19888e-12)
(0.0465695 0.055557 1.15759e-12)
(0.0449694 0.0544364 1.11361e-12)
(0.0433747 0.0533772 1.07685e-12)