/*--------------------------------*- C++ -*----------------------------------*\
| =========                 |                                                 |
| \\      /  F ield         | OpenFOAM: The Open Source CFD Toolbox           |
|  \\    /   O peration     | Version:  2306                                  |
|   \\  /    A nd           | Website:  www.openfoam.com                      |
|    \\/     M anipulation  |                                                 |
\*---------------------------------------------------------------------------*/
FoamFile
{
    version     2.0;
    format      ascii;
    arch        "LSB;label=32;scalar=64";
    class       volScalarField;
    location    "100";
    object      p_rgh;
}
// * * * * * * * * * * * * * * * * * * * * * * * * * * * * * * * * * * * * * //

dimensions      [1 -1 -2 0 0 0 0];

internalField   nonuniform List<scalar> 
14400
(
-0.00378723
-0.00395931
-0.00416395
-0.0044001
-0.00466478
-0.00495211
-0.00524499
-0.00547694
-0.00551882
-0.0056627
-0.00616315
-0.00520349
-0.015377
-0.0251221
-0.0312612
-0.0337065
-0.0330551
-0.031137
-0.0290161
-0.026983
-0.025089
-0.0233434
-0.0217497
-0.0203055
-0.0190029
-0.0178305
-0.0167757
-0.0158258
-0.0149688
-0.0141938
-0.0134909
-0.0128516
-0.0122683
-0.0117348
-0.0112454
-0.0107955
-0.0103807
-0.00999775
-0.00964338
-0.00931495
-0.00901009
-0.00872673
-0.00846304
-0.00821742
-0.0079884
-0.00777472
-0.00757523
-0.0073889
-0.00721479
-0.00705208
-0.00690002
-0.00675793
-0.00662518
-0.00650123
-0.00638556
-0.00627771
-0.00617726
-0.00608384
-0.00599709
-0.00591671
-0.00584241
-0.00577392
-0.00571103
-0.00565351
-0.00560118
-0.00555388
-0.00551145
-0.00547376
-0.0054407
-0.00541219
-0.00538813
-0.00536848
-0.00535319
-0.00534224
-0.00533562
-0.00533338
-0.00533558
-0.00534216
-0.00535308
-0.00536834
-0.00381522
-0.00402007
-0.00427597
-0.00459208
-0.00498144
-0.00546285
-0.00606232
-0.00680936
-0.00773642
-0.00893581
-0.0103859
-0.0107127
-0.0112799
-0.0126198
-0.0154122
-0.0199662
-0.0241013
-0.0255137
-0.0247738
-0.0233911
-0.0220254
-0.0207463
-0.0195366
-0.0184006
-0.0173449
-0.0163702
-0.0154741
-0.0146521
-0.0138991
-0.0132094
-0.0125772
-0.0119973
-0.0114646
-0.0109746
-0.0105231
-0.0101065
-0.00972154
-0.00936523
-0.00903501
-0.00872856
-0.00844382
-0.00817897
-0.00793236
-0.00770254
-0.00748819
-0.00728815
-0.00710135
-0.00692685
-0.00676379
-0.00661139
-0.00646895
-0.00633584
-0.00621149
-0.00609537
-0.005987
-0.00588597
-0.00579186
-0.00570434
-0.00562307
-0.00554777
-0.00547815
-0.00541399
-0.00535507
-0.00530119
-0.00525216
-0.00520785
-0.00516809
-0.00513278
-0.00510181
-0.00507508
-0.00505252
-0.00503407
-0.00501968
-0.00500931
-0.00500293
-0.00500073
-0.00500289
-0.00500924
-0.00501958
-0.00503393
-0.00355597
-0.00371038
-0.00389712
-0.00411872
-0.00437894
-0.0046836
-0.00504201
-0.00546982
-0.00599716
-0.00668374
-0.00758516
-0.00867703
-0.0102943
-0.0124869
-0.0151137
-0.0180165
-0.0204657
-0.0215686
-0.0213231
-0.0204111
-0.0193635
-0.0183445
-0.0173681
-0.0164386
-0.0155634
-0.0147465
-0.0139884
-0.0132876
-0.0126409
-0.0120448
-0.0114955
-0.010989
-0.0105217
-0.0100901
-0.00969094
-0.00932137
-0.00897877
-0.00866079
-0.00836531
-0.00809044
-0.00783448
-0.0075959
-0.00737333
-0.00716554
-0.00697143
-0.00678999
-0.00662032
-0.00646161
-0.00631312
-0.00617418
-0.00604419
-0.00592258
-0.00580887
-0.00570258
-0.00560332
-0.00551069
-0.00542436
-0.00534401
-0.00526936
-0.00520014
-0.00513612
-0.00507708
-0.00502283
-0.0049732
-0.00492802
-0.00488716
-0.00485048
-0.00481788
-0.00478927
-0.00476454
-0.00474364
-0.0047265
-0.00471308
-0.0047033
-0.00469712
-0.00469492
-0.00469709
-0.00470323
-0.00471297
-0.00472636
-0.00391586
-0.00408967
-0.00430504
-0.00456831
-0.00488859
-0.00527899
-0.00575815
-0.0063516
-0.00709064
-0.00800082
-0.00907589
-0.010322
-0.0119029
-0.0137928
-0.015716
-0.0172237
-0.0179527
-0.0179106
-0.017382
-0.0166593
-0.0159065
-0.0151742
-0.0144696
-0.0137958
-0.0131564
-0.0125539
-0.0119886
-0.0114601
-0.0109668
-0.0105071
-0.0100787
-0.00967966
-0.00930778
-0.00896109
-0.0086377
-0.00833586
-0.00805395
-0.0077905
-0.00754412
-0.00731359
-0.00709775
-0.00689557
-0.0067061
-0.00652847
-0.00636189
-0.00620562
-0.00605901
-0.00592144
-0.00579237
-0.00567128
-0.00555771
-0.00545123
-0.00535144
-0.005258
-0.00517057
-0.00508884
-0.00501255
-0.00494144
-0.00487528
-0.00481385
-0.00475697
-0.00470446
-0.00465615
-0.00461191
-0.0045716
-0.00453509
-0.0045023
-0.00447312
-0.00444746
-0.00442527
-0.00440646
-0.00439099
-0.00437882
-0.00436987
-0.00436408
-0.00436196
-0.00436404
-0.0043698
-0.00437872
-0.00439086
-0.00598785
-0.00621429
-0.00649356
-0.0068314
-0.0072348
-0.00771162
-0.00826947
-0.00891299
-0.00964003
-0.0104401
-0.011295
-0.0121802
-0.0130659
-0.0138477
-0.014383
-0.0145725
-0.0144265
-0.0140492
-0.0135673
-0.0130672
-0.0125786
-0.0121046
-0.0116455
-0.0112025
-0.0107773
-0.010371
-0.00998425
-0.00961708
-0.00926924
-0.00894023
-0.00862935
-0.00833583
-0.00805885
-0.00779756
-0.00755113
-0.00731874
-0.00709961
-0.00689298
-0.00669813
-0.0065144
-0.00634113
-0.00617774
-0.00602366
-0.00587837
-0.00574136
-0.0056122
-0.00549044
-0.00537569
-0.00526759
-0.00516578
-0.00506995
-0.0049798
-0.00489506
-0.00481547
-0.0047408
-0.00467083
-0.00460535
-0.00454418
-0.00448715
-0.0044341
-0.00438489
-0.00433937
-0.00429743
-0.00425896
-0.00422386
-0.00419202
-0.00416338
-0.00413785
-0.00411537
-0.00409588
-0.00407933
-0.00406568
-0.00405489
-0.00404689
-0.00404162
-0.00403965
-0.00404158
-0.00404683
-0.0040548
-0.00406556
-0.00860496
-0.00875802
-0.00894106
-0.00915253
-0.00938999
-0.00964941
-0.00992433
-0.0102049
-0.0104774
-0.0107254
-0.0109301
-0.0110693
-0.0111211
-0.0110694
-0.0109228
-0.0107157
-0.010485
-0.0102478
-0.0100064
-0.00976161
-0.00951475
-0.00926708
-0.00901998
-0.00877493
-0.00853329
-0.00829625
-0.00806477
-0.00783956
-0.0076212
-0.00741005
-0.00720637
-0.00701031
-0.00682191
-0.00664117
-0.00646802
-0.00630234
-0.00614398
-0.00599277
-0.00584852
-0.005711
-0.00558002
-0.00545534
-0.00533673
-0.00522398
-0.00511686
-0.00501516
-0.00491867
-0.00482717
-0.00474048
-0.00465841
-0.00458078
-0.00450741
-0.00443815
-0.00437283
-0.00431133
-0.00425348
-0.00419918
-0.0041483
-0.00410073
-0.00405635
-0.00401508
-0.00397682
-0.00394149
-0.00390902
-0.00387932
-0.00385234
-0.00382802
-0.0038063
-0.00378713
-0.00377048
-0.00375631
-0.00374458
-0.00373526
-0.0037283
-0.00372365
-0.00372189
-0.00372362
-0.00372825
-0.00373518
-0.00374447
-0.00793909
-0.00794776
-0.0079592
-0.00797127
-0.00798153
-0.00798723
-0.00798542
-0.00797303
-0.00794738
-0.00790687
-0.00785177
-0.00778447
-0.00770955
-0.0076329
-0.00755988
-0.00749172
-0.00742447
-0.00735249
-0.00727248
-0.00718415
-0.00708849
-0.00698653
-0.00687919
-0.00676737
-0.00665199
-0.00653392
-0.00641399
-0.00629301
-0.00617168
-0.00605067
-0.00593056
-0.00581184
-0.00569497
-0.00558031
-0.00546817
-0.00535882
-0.00525244
-0.0051492
-0.00504921
-0.00495257
-0.00485931
-0.00476947
-0.00468306
-0.00460005
-0.00452043
-0.00444416
-0.00437118
-0.00430145
-0.00423489
-0.00417146
-0.00411107
-0.00405367
-0.00399918
-0.00394753
-0.00389866
-0.00385249
-0.00380897
-0.00376803
-0.00372961
-0.00369365
-0.00366009
-0.0036289
-0.00360001
-0.00357338
-0.00354897
-0.00352673
-0.00350664
-0.00348865
-0.00347275
-0.00345889
-0.00344706
-0.00343724
-0.0034294
-0.0034235
-0.00341949
-0.00341795
-0.00341947
-0.00342345
-0.00342933
-0.00343714
-0.00530913
-0.00528732
-0.00526624
-0.00524587
-0.00522633
-0.00520791
-0.00519115
-0.00517676
-0.00516565
-0.00515877
-0.00515695
-0.00516056
-0.00516919
-0.00518157
-0.00519577
-0.00520962
-0.00522115
-0.00522881
-0.00523152
-0.0052286
-0.0052196
-0.00520429
-0.0051826
-0.00515469
-0.00512085
-0.00508151
-0.00503719
-0.00498843
-0.00493584
-0.00488
-0.0048215
-0.00476088
-0.00469867
-0.00463535
-0.00457135
-0.00450707
-0.00444286
-0.00437902
-0.00431584
-0.00425353
-0.0041923
-0.00413233
-0.00407375
-0.00401668
-0.00396122
-0.00390744
-0.00385542
-0.00380519
-0.00375679
-0.00371025
-0.00366558
-0.00362279
-0.00358187
-0.00354283
-0.00350566
-0.00347034
-0.00343687
-0.00340522
-0.00337538
-0.00334733
-0.00332105
-0.00329652
-0.00327372
-0.00325263
-0.00323324
-0.00321552
-0.00319946
-0.00318504
-0.00317225
-0.00316107
-0.0031515
-0.00314351
-0.00313711
-0.00313224
-0.00312887
-0.00312756
-0.00312885
-0.0031322
-0.00313704
-0.00314343
-0.00320421
-0.00319822
-0.00319582
-0.00319731
-0.00320304
-0.00321338
-0.00322867
-0.00324923
-0.00327524
-0.00330675
-0.0033436
-0.0033854
-0.00343148
-0.00348093
-0.00353265
-0.00358536
-0.00363769
-0.00368824
-0.00373577
-0.0037792
-0.0038177
-0.00385069
-0.00387778
-0.00389879
-0.0039137
-0.00392264
-0.00392583
-0.0039236
-0.00391634
-0.00390446
-0.00388842
-0.00386866
-0.00384563
-0.00381978
-0.00379152
-0.00376123
-0.0037293
-0.00369606
-0.00366181
-0.00362685
-0.00359143
-0.00355577
-0.00352008
-0.00348455
-0.00344933
-0.00341456
-0.00338038
-0.00334687
-0.00331414
-0.00328228
-0.00325133
-0.00322137
-0.00319245
-0.00316459
-0.00313785
-0.00311224
-0.00308779
-0.00306452
-0.00304245
-0.00302157
-0.00300191
-0.00298346
-0.00296623
-0.00295023
-0.00293544
-0.00292188
-0.00290954
-0.00289842
-0.00288852
-0.00287983
-0.00287235
-0.00286607
-0.00286101
-0.00285711
-0.00285435
-0.00285325
-0.00285433
-0.00285707
-0.00286096
-0.00286601
-0.00181187
-0.00181753
-0.00182791
-0.00184328
-0.00186391
-0.00189002
-0.00192181
-0.00195941
-0.00200281
-0.0020519
-0.00210637
-0.00216577
-0.00222941
-0.00229647
-0.00236596
-0.00243679
-0.00250782
-0.00257794
-0.0026461
-0.00271137
-0.00277297
-0.00283027
-0.00288278
-0.00293018
-0.00297227
-0.00300899
-0.00304036
-0.00306652
-0.00308765
-0.003104
-0.00311586
-0.00312354
-0.00312738
-0.00312771
-0.00312486
-0.00311918
-0.00311097
-0.00310054
-0.00308819
-0.00307418
-0.00305877
-0.0030422
-0.00302467
-0.00300639
-0.00298754
-0.00296829
-0.00294877
-0.00292914
-0.00290951
-0.00288999
-0.00287067
-0.00285165
-0.00283299
-0.00281478
-0.00279706
-0.0027799
-0.00276334
-0.00274742
-0.00273218
-0.00271764
-0.00270384
-0.0026908
-0.00267855
-0.00266708
-0.00265644
-0.00264661
-0.00263762
-0.00262948
-0.00262218
-0.00261574
-0.00261017
-0.00260546
-0.00260161
-0.00259861
-0.00259641
-0.00259552
-0.0025964
-0.00259858
-0.00260157
-0.0026054
-0.000887587
-0.000900905
-0.000919357
-0.00094312
-0.000972335
-0.0010071
-0.00104747
-0.0010934
-0.00114477
-0.00120135
-0.00126278
-0.00132859
-0.00139818
-0.00147084
-0.00154579
-0.00162216
-0.00169909
-0.00177569
-0.00185115
-0.00192468
-0.00199562
-0.00206339
-0.0021275
-0.0021876
-0.00224341
-0.00229478
-0.0023416
-0.00238389
-0.00242169
-0.00245511
-0.00248432
-0.0025095
-0.00253087
-0.00254866
-0.0025631
-0.00257446
-0.00258297
-0.00258889
-0.00259246
-0.0025939
-0.00259345
-0.0025913
-0.00258768
-0.00258275
-0.00257669
-0.00256968
-0.00256186
-0.00255337
-0.00254433
-0.00253488
-0.00252511
-0.00251513
-0.00250503
-0.00249488
-0.00248476
-0.00247474
-0.00246488
-0.00245523
-0.00244584
-0.00243676
-0.00242803
-0.00241968
-0.00241174
-0.00240424
-0.00239721
-0.00239066
-0.00238461
-0.00237909
-0.0023741
-0.00236965
-0.00236576
-0.00236244
-0.00235968
-0.00235747
-0.00235579
-0.00235508
-0.00235578
-0.00235745
-0.00235965
-0.0023624
-0.000282942
-0.000300483
-0.000323099
-0.000350872
-0.000383846
-0.000422018
-0.000465334
-0.00051368
-0.000566867
-0.00062463
-0.000686622
-0.000752413
-0.000821495
-0.000893295
-0.000967186
-0.0010425
-0.00111857
-0.0011947
-0.00127025
-0.0013446
-0.0014172
-0.00148755
-0.00155522
-0.00161987
-0.0016812
-0.00173902
-0.00179317
-0.00184359
-0.00189023
-0.00193311
-0.00197231
-0.0020079
-0.00204001
-0.00206879
-0.00209439
-0.00211699
-0.00213676
-0.00215389
-0.00216857
-0.00218096
-0.00219127
-0.00219965
-0.00220629
-0.00221135
-0.00221497
-0.00221731
-0.00221851
-0.00221869
-0.00221799
-0.00221651
-0.00221436
-0.00221165
-0.00220846
-0.00220488
-0.00220098
-0.00219684
-0.00219253
-0.0021881
-0.00218362
-0.00217912
-0.00217465
-0.00217027
-0.00216599
-0.00216187
-0.00215792
-0.00215417
-0.00215066
-0.00214739
-0.00214439
-0.00214166
-0.00213924
-0.00213712
-0.00213531
-0.0021338
-0.00213257
-0.00213202
-0.00213256
-0.00213379
-0.0021353
-0.0021371
0.000106236
8.70045e-05
6.30089e-05
3.4233e-05
7.00624e-07
-3.7525e-05
-8.03383e-05
-0.000127586
-0.000179062
-0.000234507
-0.000293604
-0.000355984
-0.000421226
-0.00048887
-0.000558419
-0.000629355
-0.000701151
-0.000773279
-0.000845227
-0.000916507
-0.000986665
-0.00105529
-0.00112201
-0.00118651
-0.00124853
-0.00130785
-0.0013643
-0.00141776
-0.00146816
-0.00151546
-0.00155966
-0.00160077
-0.00163886
-0.00167401
-0.00170629
-0.00173583
-0.00176274
-0.00178715
-0.00180919
-0.00182899
-0.0018467
-0.00186246
-0.00187639
-0.00188862
-0.0018993
-0.00190855
-0.00191647
-0.0019232
-0.00192883
-0.00193348
-0.00193724
-0.0019402
-0.00194245
-0.00194407
-0.00194513
-0.00194571
-0.00194587
-0.00194567
-0.00194517
-0.00194442
-0.00194347
-0.00194235
-0.00194112
-0.0019398
-0.00193842
-0.00193703
-0.00193563
-0.00193426
-0.00193293
-0.00193167
-0.00193048
-0.00192939
-0.00192839
-0.00192748
-0.00192664
-0.00192624
-0.00192664
-0.00192748
-0.00192839
-0.00192938
0.00035039
0.000331113
0.000307495
0.000279563
0.000247376
0.000211028
0.000170644
0.000126388
7.8457e-05
2.70906e-05
-2.74356e-05
-8.48099e-05
-0.000144688
-0.000206699
-0.00027045
-0.000335532
-0.000401532
-0.000468035
-0.000534637
-0.000600948
-0.000666601
-0.000731256
-0.000794601
-0.000856362
-0.000916299
-0.000974206
-0.00102992
-0.00108329
-0.00113424
-0.00118268
-0.00122859
-0.00127193
-0.00131272
-0.00135099
-0.00138678
-0.00142015
-0.00145117
-0.00147992
-0.0015065
-0.001531
-0.00155351
-0.00157414
-0.00159299
-0.00161016
-0.00162576
-0.00163989
-0.00165265
-0.00166412
-0.00167441
-0.0016836
-0.00169178
-0.00169903
-0.00170542
-0.00171104
-0.00171594
-0.00172019
-0.00172386
-0.001727
-0.00172966
-0.0017319
-0.00173376
-0.00173528
-0.00173649
-0.00173745
-0.00173817
-0.00173869
-0.00173903
-0.00173921
-0.00173927
-0.00173921
-0.00173905
-0.00173881
-0.00173849
-0.00173808
-0.00173758
-0.0017373
-0.00173758
-0.00173809
-0.0017385
-0.00173882
0.000496979
0.00047862
0.000456379
0.000430303
0.000400468
0.000366977
0.000329958
0.000289566
0.000245983
0.000199418
0.000150107
9.83103e-05
4.43086e-05
-1.15978e-05
-6.90947e-05
-0.000127858
-0.00018756
-0.000247872
-0.000308471
-0.000369045
-0.000429296
-0.000488942
-0.000547725
-0.000605407
-0.000661779
-0.000716653
-0.000769871
-0.000821299
-0.000870828
-0.000918373
-0.000963872
-0.00100728
-0.00104859
-0.00108778
-0.00112487
-0.00115988
-0.00119284
-0.00122382
-0.00125285
-0.00128001
-0.00130535
-0.00132895
-0.00135089
-0.00137123
-0.00139007
-0.00140747
-0.00142351
-0.00143827
-0.00145182
-0.00146424
-0.0014756
-0.00148597
-0.00149541
-0.00150398
-0.00151175
-0.00151878
-0.00152511
-0.0015308
-0.0015359
-0.00154045
-0.00154449
-0.00154806
-0.00155121
-0.00155396
-0.00155634
-0.00155838
-0.00156011
-0.00156155
-0.00156271
-0.00156362
-0.0015643
-0.00156475
-0.00156498
-0.00156499
-0.00156476
-0.00156459
-0.00156476
-0.001565
-0.00156499
-0.00156476
0.000578031
0.000561083
0.000540702
0.000516944
0.000489889
0.000459638
0.000426309
0.000390044
0.000351003
0.000309366
0.000265332
0.000219116
0.000170948
0.000121072
6.97414e-05
1.72152e-05
-3.62436e-05
-9.03718e-05
-0.00014491
-0.000199606
-0.000254215
-0.000308506
-0.000362264
-0.000415286
-0.000467389
-0.00051841
-0.000568202
-0.000616638
-0.000663611
-0.000709031
-0.000752827
-0.000794944
-0.000835342
-0.000873998
-0.000910899
-0.000946046
-0.00097945
-0.00101113
-0.00104112
-0.00106945
-0.00109617
-0.00112132
-0.00114495
-0.00116712
-0.00118787
-0.00120728
-0.00122539
-0.00124227
-0.00125797
-0.00127256
-0.00128608
-0.0012986
-0.00131017
-0.00132085
-0.00133067
-0.0013397
-0.00134797
-0.00135554
-0.00136244
-0.00136872
-0.0013744
-0.00137953
-0.00138415
-0.00138826
-0.00139192
-0.00139514
-0.00139794
-0.00140035
-0.00140238
-0.00140405
-0.00140538
-0.00140638
-0.00140705
-0.00140739
-0.00140739
-0.00140731
-0.0014074
-0.00140741
-0.00140707
-0.00140641
0.000615232
0.000599895
0.000581544
0.000560235
0.000536045
0.000509065
0.000479403
0.000447183
0.000412544
0.000375637
0.000336629
0.000295698
0.000253034
0.000208835
0.000163306
0.000116656
6.90984e-05
2.08457e-05
-2.78919e-05
-7.69081e-05
-0.000126003
-0.000174986
-0.000223676
-0.000271902
-0.000319506
-0.000366345
-0.000412289
-0.00045722
-0.000501037
-0.000543653
-0.000584992
-0.000624995
-0.000663611
-0.000700806
-0.000736554
-0.00077084
-0.000803657
-0.000835008
-0.000864904
-0.00089336
-0.000920401
-0.000946052
-0.000970347
-0.00099332
-0.00101501
-0.00103546
-0.0010547
-0.00107279
-0.00108976
-0.00110566
-0.00112054
-0.00113444
-0.0011474
-0.00115946
-0.00117067
-0.00118106
-0.00119068
-0.00119956
-0.00120773
-0.00121524
-0.00122211
-0.00122837
-0.00123405
-0.00123917
-0.00124377
-0.00124786
-0.00125147
-0.0012546
-0.00125729
-0.00125954
-0.00126137
-0.00126278
-0.00126379
-0.00126439
-0.00126458
-0.00126457
-0.00126459
-0.00126441
-0.00126382
-0.00126282
0.000623378
0.000609672
0.00059333
0.000574406
0.000552968
0.0005291
0.000502894
0.000474457
0.000443907
0.000411371
0.000376989
0.000340907
0.000303283
0.000264276
0.000224056
0.000182793
0.00014066
9.78297e-05
5.44747e-05
1.07637e-05
-3.31383e-05
-7.70726e-05
-0.000120887
-0.000164438
-0.00020759
-0.000250219
-0.000292208
-0.000333454
-0.000373862
-0.000413349
-0.000451843
-0.000489281
-0.000525612
-0.000560793
-0.00059479
-0.000627578
-0.000659141
-0.000689469
-0.000718558
-0.000746411
-0.000773038
-0.00079845
-0.000822666
-0.000845707
-0.000867595
-0.000888359
-0.000908026
-0.000926627
-0.000944193
-0.000960757
-0.000976352
-0.000991011
-0.00100477
-0.00101765
-0.0010297
-0.00104095
-0.00105142
-0.00106115
-0.00107016
-0.00107848
-0.00108615
-0.00109317
-0.00109959
-0.00110541
-0.00111067
-0.00111538
-0.00111955
-0.00112321
-0.00112637
-0.00112904
-0.00113123
-0.00113295
-0.00113422
-0.00113501
-0.00113534
-0.00113539
-0.00113535
-0.00113504
-0.00113425
-0.001133
0.00061256
0.000600411
0.000585963
0.000569263
0.000550372
0.000529362
0.000506312
0.000481315
0.000454468
0.000425879
0.000395664
0.000363944
0.000330849
0.00029651
0.000261066
0.000224656
0.000187422
0.000149507
0.000111051
7.21947e-05
3.30742e-05
-6.17792e-06
-4.54339e-05
-8.45718e-05
-0.000123476
-0.000162039
-0.000200158
-0.000237742
-0.000274705
-0.00031097
-0.000346469
-0.000381141
-0.000414934
-0.000447803
-0.00047971
-0.000510625
-0.000540523
-0.000569388
-0.000597208
-0.000623975
-0.000649688
-0.000674349
-0.000697966
-0.000720548
-0.000742108
-0.000762661
-0.000782226
-0.000800823
-0.000818473
-0.000835198
-0.000851021
-0.000865968
-0.000880063
-0.00089333
-0.000905794
-0.000917479
-0.000928411
-0.000938612
-0.000948105
-0.000956913
-0.000965057
-0.000972558
-0.000979435
-0.000985706
-0.000991389
-0.000996498
-0.00100105
-0.00100506
-0.00100853
-0.00101149
-0.00101393
-0.00101587
-0.00101731
-0.00101825
-0.00101868
-0.00101877
-0.00101869
-0.00101827
-0.00101735
-0.00101592
0.000589714
0.000578998
0.000566277
0.000551594
0.000535001
0.00051656
0.000496339
0.000474415
0.000450869
0.000425793
0.000399282
0.000371437
0.000342364
0.000312173
0.000280977
0.000248892
0.000216034
0.000182521
0.00014847
0.000113997
7.92147e-05
4.42352e-05
9.1658e-06
-2.589e-05
-6.08334e-05
-9.55709e-05
-0.000130014
-0.000164082
-0.000197697
-0.00023079
-0.000263297
-0.000295162
-0.000326333
-0.000356766
-0.000386421
-0.000415266
-0.000443273
-0.000470419
-0.000496687
-0.000522065
-0.000546542
-0.000570115
-0.000592781
-0.000614543
-0.000635406
-0.000655377
-0.000674464
-0.000692681
-0.00071004
-0.000726555
-0.000742242
-0.000757118
-0.000771199
-0.000784505
-0.000797052
-0.000808859
-0.000819944
-0.000830325
-0.00084002
-0.000849045
-0.000857418
-0.000865155
-0.00087227
-0.00087878
-0.000884697
-0.000890034
-0.000894803
-0.000899016
-0.000902682
-0.000905809
-0.000908407
-0.000910482
-0.000912039
-0.000913074
-0.000913583
-0.000913711
-0.000913598
-0.000913105
-0.000912085
-0.000910542
0.000559586
0.000550163
0.000538992
0.00052611
0.000511562
0.0004954
0.000477682
0.000458472
0.000437839
0.000415859
0.000392611
0.00036818
0.000342652
0.00031612
0.000288677
0.000260418
0.00023144
0.00020184
0.000171716
0.000141165
0.000110281
7.91589e-05
4.78887e-05
1.65585e-05
-1.47469e-05
-4.59469e-05
-7.69649e-05
-0.000107728
-0.00013817
-0.000168227
-0.000197842
-0.00022696
-0.000255535
-0.000283523
-0.000310886
-0.000337589
-0.000363603
-0.000388904
-0.000413471
-0.000437286
-0.000460336
-0.000482611
-0.000504104
-0.000524811
-0.000544731
-0.000563865
-0.000582215
-0.000599788
-0.000616589
-0.000632627
-0.000647911
-0.000662452
-0.000676261
-0.000689349
-0.000701729
-0.000713415
-0.000724418
-0.000734752
-0.00074443
-0.000753464
-0.000761868
-0.000769653
-0.000776832
-0.000783416
-0.000789414
-0.000794838
-0.000799697
-0.000804
-0.000807754
-0.000810966
-0.000813643
-0.000815791
-0.000817414
-0.000818508
-0.000819069
-0.000819221
-0.000819085
-0.00081854
-0.000817462
-0.000815855
0.000525451
0.000517175
0.000507374
0.000496081
0.000483334
0.000469175
0.000453655
0.000436826
0.000418747
0.00039948
0.000379092
0.000357653
0.000335235
0.000311915
0.00028777
0.000262879
0.000237324
0.000211185
0.000184544
0.000157482
0.000130079
0.000102413
7.45627e-05
4.66018e-05
1.86034e-05
-9.36303e-06
-3.72307e-05
-6.49364e-05
-9.24202e-05
-0.000119626
-0.000146502
-0.000172998
-0.000199071
-0.00022468
-0.000249788
-0.000274361
-0.000298369
-0.000321788
-0.000344594
-0.000366767
-0.000388292
-0.000409156
-0.000429347
-0.000448858
-0.000467682
-0.000485817
-0.00050326
-0.000520012
-0.000536074
-0.00055145
-0.000566144
-0.000580162
-0.00059351
-0.000606195
-0.000618225
-0.000629609
-0.000640354
-0.00065047
-0.000659966
-0.000668851
-0.000677134
-0.000684824
-0.00069193
-0.00069846
-0.000704421
-0.000709822
-0.00071467
-0.000718971
-0.000722732
-0.000725957
-0.000728653
-0.000730823
-0.000732471
-0.000733593
-0.000734185
-0.000734354
-0.000734202
-0.000733626
-0.000732521
-0.000730889
0.000489523
0.000482259
0.000473664
0.000463765
0.000452594
0.000440187
0.000426587
0.000411837
0.000395987
0.000379089
0.000361199
0.000342374
0.000322676
0.000302168
0.000280914
0.000258981
0.000236437
0.000213349
0.000189785
0.000165815
0.000141505
0.000116922
9.21324e-05
6.71995e-05
4.21858e-05
1.71515e-05
-7.84539e-06
-3.27495e-05
-5.75081e-05
-8.20713e-05
-0.000106392
-0.000130426
-0.000154132
-0.000177473
-0.000200414
-0.000222922
-0.00024497
-0.00026653
-0.000287579
-0.000308098
-0.000328069
-0.000347475
-0.000366304
-0.000384546
-0.000402191
-0.000419232
-0.000435666
-0.000451487
-0.000466694
-0.000481288
-0.000495267
-0.000508634
-0.000521392
-0.000533544
-0.000545094
-0.000556047
-0.000566407
-0.000576181
-0.000585374
-0.000593992
-0.000602041
-0.000609528
-0.000616457
-0.000622836
-0.000628669
-0.000633963
-0.000638722
-0.000642952
-0.000646656
-0.000649839
-0.000652505
-0.000654657
-0.000656298
-0.000657423
-0.000658032
-0.000658211
-0.000658049
-0.000657458
-0.000656349
-0.000654725
0.000453304
0.000446926
0.000439385
0.000430702
0.000420905
0.000410026
0.000398099
0.000385161
0.000371253
0.00035642
0.000340707
0.000324163
0.000306839
0.000288789
0.000270065
0.000250725
0.000230825
0.000210421
0.000189571
0.000168334
0.000146766
0.000124923
0.000102863
8.06396e-05
5.83067e-05
3.59163e-05
1.35187e-05
-8.83741e-06
-3.11057e-05
-5.32419e-05
-7.52038e-05
-9.69519e-05
-0.000118449
-0.000139659
-0.000160551
-0.000181094
-0.000201261
-0.000221027
-0.000240367
-0.000259263
-0.000277695
-0.000295646
-0.000313104
-0.000330054
-0.000346486
-0.000362392
-0.000377763
-0.000392594
-0.000406881
-0.000420619
-0.000433807
-0.000446443
-0.000458527
-0.00047006
-0.000481043
-0.000491477
-0.000501364
-0.000510709
-0.000519513
-0.00052778
-0.000535514
-0.000542718
-0.000549397
-0.000555553
-0.000561192
-0.000566315
-0.000570928
-0.000575033
-0.000578634
-0.000581732
-0.000584332
-0.000586435
-0.000588043
-0.000589154
-0.000589764
-0.000589949
-0.000589782
-0.000589189
-0.000588095
-0.000586504
0.00041778
0.000412177
0.000405555
0.000397934
0.000389335
0.000379785
0.000369314
0.000357953
0.000345735
0.000332699
0.000318883
0.000304328
0.000289076
0.000273173
0.000256663
0.000239594
0.000222013
0.000203968
0.000185509
0.000166684
0.000147542
0.00012813
0.000108498
8.86925e-05
6.87591e-05
4.87432e-05
2.86887e-05
8.63794e-06
-1.13682e-05
-3.12904e-05
-5.10912e-05
-7.0735e-05
-9.01879e-05
-0.000109418
-0.000128396
-0.000147092
-0.000165482
-0.000183542
-0.000201248
-0.000218581
-0.000235522
-0.000252055
-0.000268164
-0.000283836
-0.000299058
-0.000313822
-0.000328117
-0.000341936
-0.000355273
-0.000368121
-0.000380477
-0.000392338
-0.0004037
-0.000414562
-0.000424923
-0.000434783
-0.000444141
-0.000452999
-0.000461357
-0.000469217
-0.00047658
-0.000483448
-0.000489823
-0.000495707
-0.000501102
-0.000506011
-0.000510436
-0.000514378
-0.00051784
-0.000520823
-0.00052333
-0.000525361
-0.000526919
-0.000528
-0.000528602
-0.000528788
-0.00052862
-0.000528035
-0.000526971
-0.00052543
0.000383596
0.000378669
0.000372847
0.000366149
0.000358592
0.000350199
0.000340994
0.000331005
0.000320259
0.000308788
0.000296625
0.000283804
0.000270361
0.000256333
0.000241759
0.000226679
0.000211133
0.000195162
0.000178807
0.00016211
0.000145112
0.000127855
0.00011038
9.2727e-05
7.49365e-05
5.70474e-05
3.9098e-05
2.11254e-05
3.16555e-06
-1.47469e-05
-3.25785e-05
-5.02974e-05
-6.7873e-05
-8.52765e-05
-0.00010248
-0.000119459
-0.000136188
-0.000152644
-0.000168807
-0.000184657
-0.000200175
-0.000215346
-0.000230154
-0.000244585
-0.000258627
-0.000272269
-0.0002855
-0.000298312
-0.000310697
-0.000322648
-0.00033416
-0.000345227
-0.000355846
-0.000366012
-0.000375724
-0.000384979
-0.000393776
-0.000402113
-0.000409991
-0.000417408
-0.000424364
-0.000430861
-0.000436898
-0.000442477
-0.000447597
-0.000452261
-0.000456469
-0.000460222
-0.000463521
-0.000466367
-0.000468762
-0.000470705
-0.000472199
-0.00047324
-0.000473826
-0.00047401
-0.000473844
-0.000473274
-0.000472251
-0.000470774
0.00035114
0.000346802
0.000341679
0.000335785
0.000329135
0.000321749
0.000313647
0.000304851
0.000295387
0.00028528
0.000274558
0.00026325
0.000251386
0.000238998
0.000226119
0.000212782
0.000199022
0.000184873
0.000170371
0.00015555
0.000140448
0.000125098
0.000109537
9.37991e-05
7.79195e-05
6.1932e-05
4.58698e-05
2.97656e-05
1.36509e-05
-2.44358e-06
-1.84882e-05
-3.44543e-05
-5.03146e-05
-6.6043e-05
-8.16143e-05
-9.7005e-05
-0.000112193
-0.000127156
-0.000141875
-0.000156332
-0.000170508
-0.000184388
-0.000197957
-0.000211202
-0.000224108
-0.000236666
-0.000248864
-0.000260694
-0.000272145
-0.000283212
-0.000293887
-0.000304164
-0.000314037
-0.000323503
-0.000332557
-0.000341197
-0.000349418
-0.00035722
-0.000364599
-0.000371555
-0.000378086
-0.000384192
-0.000389871
-0.000395125
-0.000399951
-0.000404351
-0.000408324
-0.000411871
-0.000414992
-0.000417687
-0.000419957
-0.000421802
-0.000423222
-0.000424216
-0.00042478
-0.00042496
-0.000424797
-0.00042425
-0.000423273
-0.000421869
0.000320632
0.000316808
0.000312294
0.000307099
0.00030124
0.000294731
0.000287589
0.000279835
0.000271488
0.00026257
0.000253106
0.000243119
0.000232636
0.000221684
0.000210289
0.000198481
0.000186289
0.000173743
0.000160873
0.000147708
0.00013428
0.000120619
0.000106756
9.27215e-05
7.85445e-05
6.42551e-05
4.98823e-05
3.54548e-05
2.10004e-05
6.5462e-06
-7.88148e-06
-2.22572e-05
-3.65563e-05
-5.07552e-05
-6.48312e-05
-7.87628e-05
-9.25293e-05
-0.000106111
-0.00011949
-0.000132648
-0.000145569
-0.000158237
-0.000170639
-0.00018276
-0.000194588
-0.000206112
-0.000217321
-0.000228205
-0.000238756
-0.000248964
-0.000258824
-0.000268328
-0.00027747
-0.000286244
-0.000294647
-0.000302674
-0.000310321
-0.000317584
-0.000324462
-0.000330952
-0.000337051
-0.000342757
-0.000348071
-0.000352989
-0.000357512
-0.000361638
-0.000365368
-0.000368699
-0.000371633
-0.000374169
-0.000376306
-0.000378046
-0.000379387
-0.000380329
-0.000380868
-0.000381041
-0.000380885
-0.000380362
-0.000379438
-0.000378113
0.00029217
0.000288796
0.000284812
0.000280229
0.000275059
0.000269315
0.000263012
0.000256165
0.000248794
0.000240916
0.000232551
0.00022372
0.000214445
0.00020475
0.000194658
0.000184192
0.000173379
0.000162243
0.000150811
0.000139108
0.000127161
0.000114996
0.00010264
9.01186e-05
7.7458e-05
6.46841e-05
5.18223e-05
3.88978e-05
2.5935e-05
1.29579e-05
-1.00253e-08
-1.29461e-05
-2.58284e-05
-3.86356e-05
-5.13472e-05
-6.39436e-05
-7.64058e-05
-8.8716e-05
-0.000100857
-0.000112812
-0.000124567
-0.000136105
-0.000147415
-0.000158482
-0.000169295
-0.000179843
-0.000190114
-0.000200099
-0.00020979
-0.000219177
-0.000228253
-0.000237012
-0.000245445
-0.000253549
-0.000261317
-0.000268745
-0.000275828
-0.000282562
-0.000288945
-0.000294972
-0.000300642
-0.000305951
-0.000310898
-0.000315481
-0.000319698
-0.000323549
-0.000327031
-0.000330144
-0.000332887
-0.00033526
-0.000337262
-0.000338893
-0.000340153
-0.000341039
-0.000341549
-0.000341715
-0.000341566
-0.000341071
-0.000340202
-0.000338958
0.000265776
0.000262794
0.000259274
0.000255225
0.000250657
0.000245581
0.00024001
0.000233958
0.000227439
0.00022047
0.000213067
0.000205249
0.000197034
0.000188442
0.000179493
0.000170208
0.000160608
0.000150715
0.000140552
0.00013014
0.000119503
0.000108664
9.76448e-05
8.64687e-05
7.51585e-05
6.37366e-05
5.22255e-05
4.06471e-05
2.9023e-05
1.73745e-05
5.72229e-06
-5.91332e-06
-1.75127e-05
-2.90567e-05
-4.05268e-05
-5.19052e-05
-6.31748e-05
-7.43191e-05
-8.53221e-05
-9.6169e-05
-0.000106845
-0.000117337
-0.000127632
-0.000137717
-0.000147581
-0.000157213
-0.000166603
-0.000175741
-0.000184618
-0.000193226
-0.000201558
-0.000209605
-0.000217362
-0.000224822
-0.000231979
-0.000238829
-0.000245367
-0.000251588
-0.000257489
-0.000263065
-0.000268315
-0.000273235
-0.000277822
-0.000282074
-0.00028599
-0.000289567
-0.000292805
-0.000295701
-0.000298254
-0.000300464
-0.00030233
-0.000303852