/*--------------------------------*- C++ -*----------------------------------*\
| =========                 |                                                 |
| \\      /  F ield         | OpenFOAM: The Open Source CFD Toolbox           |
|  \\    /   O peration     | Version:  2306                                  |
|   \\  /    A nd           | Website:  www.openfoam.com                      |
|    \\/     M anipulation  |                                                 |
\*---------------------------------------------------------------------------*/
FoamFile
{
    version     2.0;
    format      ascii;
    arch        "LSB;label=32;scalar=64";
    class       surfaceScalarField;
    location    "100";
    object      phi;
}
// * * * * * * * * * * * * * * * * * * * * * * * * * * * * * * * * * * * * * //

dimensions      [0 3 -1 0 0 0 0];

oriented        oriented;

internalField   nonuniform List<scalar> 
37980
(
0.951438
4.54314
-4.53962e-09
1.13766
4.53849
-4.59485e-09
1.32815
4.53421
-5.15475e-09
1.52246
4.5304
-6.21763e-09
1.72145
4.52571
-7.28091e-09
1.93149
4.51466
-8.88635e-09
2.17489
4.48131
-8.54516e-09
2.51613
4.38346
-8.25396e-09
3.13319
4.10764
-6.04856e-09
4.49501
3.36288
3.36498e-08
3.03277
1.46224
3.05531e-09
2.08348
0.949288
2.36667e-08
1.59927
0.484214
1.66317e-08
1.37516
0.224107
1.38329e-09
1.18717
0.187996
7.09926e-10
1.01273
0.174438
2.49285e-09
0.863687
0.149042
2.68002e-09
0.745716
0.117971
2.10666e-09
0.658709
0.0870071
1.49579e-09
0.59738
0.0613292
9.6606e-10
0.55505
0.0423304
5.44412e-10
0.52598
0.0290699
2.3388e-10
0.505736
0.0202434
1.71109e-11
0.491057
0.0146797
-8.32229e-11
0.479644
0.0114128
-1.2792e-10
0.469955
0.00968852
-1.00247e-10
0.461008
0.00894753
-6.96262e-11
0.452214
0.00879413
-1.31672e-11
0.443253
0.0089607
1.63196e-11
0.433978
0.00927478
5.22766e-11
0.424347
0.00963135
5.79162e-11
0.414376
0.00997107
7.05656e-11
0.404112
0.0102641
6.04042e-11
0.393613
0.0104985
6.22991e-11
0.38294
0.010673
4.81389e-11
0.372149
0.0107916
4.84181e-11
0.361288
0.0108609
3.59843e-11
0.350399
0.0108884
3.7566e-11
0.339518
0.0108813
2.77605e-11
0.328672
0.0108461
3.04404e-11
0.317883
0.0107886
2.25304e-11
0.30717
0.0107138
2.55393e-11
0.296544
0.0106259
1.88213e-11
0.286016
0.0105282
2.17077e-11
0.275592
0.0104237
1.58388e-11
0.265277
0.0103146
1.84683e-11
0.255074
0.0102029
1.33273e-11
0.244984
0.0100901
1.57026e-11
0.235007
0.00997744
1.12373e-11
0.225141
0.0098659
1.33843e-11
0.215385
0.00975629
9.54548e-12
0.205735
0.00964924
1.14789e-11
0.19619
0.00954525
8.20892e-12
0.186745
0.00944472
9.9323e-12
0.177397
0.00934795
7.17221e-12
0.168142
0.00925517
8.6853e-12
0.158976
0.00916655
6.38254e-12
0.149893
0.00908222
7.68639e-12
0.140891
0.00900227
5.79798e-12
0.131964
0.00892675
6.89655e-12
0.123109
0.00885568
5.38985e-12
0.11432
0.00878908
6.28987e-12
0.105593
0.00872692
5.14086e-12
0.0969236
0.00866919
5.84934e-12
0.0883077
0.00861582
5.03831e-12
0.079741
0.00856678
5.55484e-12
0.071219
0.00852199
5.0524e-12
0.0627376
0.00848139
5.35024e-12
0.0542926
0.00844493
5.09273e-12
0.0458801
0.00841256
5.11122e-12
0.0374958
0.00838427
5.0419e-12
0.0291357
0.00836012
4.81369e-12
0.0207954
0.00834026
5.04496e-12
0.0124705
0.00832498
4.29447e-12
0.00415557
0.00831489
3.2173e-12
-0.00415566
0.00831123
-1.78667e-12
-0.0124705
0.00831488
9.01903e-12
-0.0207955
0.00832498
8.52877e-12
-0.0291358
0.00834025
1.69761e-11
0.00836011
2.19443e-11
2.08753
4.12898
3.45775e-10
2.53024
4.09578
-1.48943e-10
3.01027
4.05417
-1.04669e-09
3.53882
4.00185
-2.74318e-09
4.12975
3.93478
-5.82336e-09
4.79877
3.84564
-8.86482e-09
5.55875
3.72133
-1.34308e-08
6.40319
3.53902
-1.54905e-08
7.24886
3.26197
-1.80818e-08
7.76527
2.84648
-2.01087e-08
6.91568
2.31184
-6.88745e-09
6.0133
1.85166
5.55822e-09
5.11945
1.37806
2.27227e-08
4.34478
0.998783
1.55963e-08
3.76292
0.769855
7.9427e-09
3.31937
0.617988
5.51277e-09
2.96864
0.499771
3.37617e-09
2.68616
0.400449
1.94683e-09
2.45654
0.316629
1.23004e-09
2.26945
0.24842
6.04219e-10
2.11662
0.195159
1.47077e-10
1.99069
0.154997
-1.54095e-10
1.88537
0.125565
-2.87369e-10
1.79556
0.104494
-3.22324e-10
1.71729
0.0896815
-2.83671e-10
1.64758
0.0793976
-2.16089e-10
1.58424
0.0722865
-1.40098e-10
1.5257
0.0673344
-7.68505e-11
1.47085
0.063812
-2.95247e-11
1.41891
0.0612137
-3.06314e-12
1.36934
0.0591996
1.06438e-11
1.32176
0.0575486
1.14905e-11
1.27591
0.0561212
9.18592e-12
1.23157
0.0548316
2.14051e-12
1.18862
0.0536294
-2.3927e-12
1.14692
0.0524856
-8.18004e-12
1.1064
0.0513847
-1.01916e-11
1.06697
0.050319
-1.30468e-11
1.02856
0.0492854
-1.27607e-11
0.991127
0.0482829
-1.37718e-11
0.954604
0.0473118
-1.24705e-11
0.918945
0.0463729
-1.27736e-11
0.884104
0.0454669
-1.12877e-11
0.850037
0.0445947
-1.14296e-11
0.816705
0.0437566
-1.00578e-11
0.784066
0.0429529
-1.0186e-11
0.752085
0.0421837
-8.96967e-12
0.720727
0.0414489
-9.08748e-12
0.689956
0.0407479
-8.00338e-12
0.659742
0.0400805
-8.09678e-12
0.630052
0.039446
-7.12839e-12
0.600857
0.0388438
-7.19732e-12
0.57213
0.038273
-6.34134e-12
0.543841
0.037733
-6.39528e-12
0.515966
0.037223
-5.65516e-12
0.488479
0.0367422
-5.70485e-12
0.461356
0.0362899
-5.0833e-12
0.434573
0.0358651
-5.13605e-12
0.408108
0.0354673
-4.63297e-12
0.381939
0.0350956
-4.69171e-12
0.356045
0.0347494
-4.30342e-12
0.330406
0.0344279
-4.36745e-12
0.305003
0.0341306
-4.08887e-12
0.279815
0.0338568
-4.15579e-12
0.254825
0.0336059
-3.98291e-12
0.230015
0.0333774
-4.05426e-12
0.205366
0.0331708
-3.99596e-12
0.180862
0.0329856
-4.09697e-12
0.156485
0.0328215
-4.20094e-12
0.13222
0.0326781
-4.39904e-12
0.108048
0.0325554
-4.72295e-12
0.0839552
0.0324533
-5.00209e-12
0.0599233
0.0323721
-5.39246e-12
0.0359359
0.0323123
-5.88128e-12
0.0119758
0.032275
-7.65236e-12
-0.0119752
0.0322622
-1.22219e-11
-0.0359353
0.032275
-4.82505e-12
-0.0599227
0.0323123
-6.34385e-12
-0.0839545
0.0323721
2.81402e-12
0.0324533
4.80253e-12
2.2857
3.69799
-7.03614e-10
2.72852
3.65296
-1.00482e-09
3.18583
3.59686
-1.46782e-09
3.66021
3.52747
-2.65278e-09
4.15328
3.4417
-4.36258e-09
4.66361
3.33531
-6.24787e-09
5.18216
3.20278
-7.10232e-09
5.68348
3.0377
-6.94096e-09
6.1109
2.83455
-5.79814e-09
6.3645
2.59287
-2.77869e-09
6.35279
2.32355
7.27962e-10
6.16072
2.04373
4.80009e-09
5.78956
1.74923
7.501e-09
5.32351
1.46483
7.04443e-09
4.88124
1.21212
5.16567e-09
4.50106
0.998172
3.41969e-09
4.17927
0.821561
2.12557e-09
3.90249
0.677225
1.249e-09
3.65969
0.559427
6.84863e-10
3.44448
0.46363
2.25459e-10
3.25279
0.386851
-1.1164e-10
3.08133
0.326456
-3.19501e-10
2.92716
0.279734
-3.94453e-10
2.78765
0.244006
-3.8965e-10
2.6605
0.21683
-3.33076e-10
2.54378
0.196124
-2.59377e-10
2.43586
0.180206
-1.85504e-10
2.33542
0.167773
-1.27106e-10
2.24138
0.157851
-8.4594e-11
2.15286
0.149731
-6.13041e-11
2.06915
0.14291
-4.8609e-11
1.98967
0.137035
-4.67849e-11
1.91392
0.131865
-4.66996e-11
1.84152
0.127233
-5.03395e-11
1.77213
0.123023
-5.11464e-11
1.70545
0.119157
-5.29839e-11
1.64126
0.115578
-5.13303e-11
1.57934
0.112245
-5.06276e-11
1.51949
0.109128
-4.7249e-11
1.46157
0.106206
-4.53279e-11
1.40542
0.10346
-4.15481e-11
1.35092
0.100876
-3.94901e-11
1.29794
0.0984417
-3.60373e-11
1.24639
0.0961471
-3.42769e-11
1.19616
0.0939833
-3.13397e-11
1.14717
0.0919425
-2.99251e-11
1.09934
0.0900177
-2.74565e-11
1.05259
0.0882026
-2.63165e-11
1.00684
0.0864913
-2.42261e-11
0.962046
0.0848786
-2.32884e-11
0.918132
0.0833595
-2.15069e-11
0.875046
0.0819296
-2.07261e-11
0.832735
0.0805846
-1.92085e-11
0.791147
0.0793206
-1.8558e-11
0.750236
0.0781341
-1.72739e-11
0.709957
0.0770217
-1.67356e-11
0.670266
0.0759803
-1.56612e-11
0.631124
0.075007
-1.52198e-11
0.592493
0.0740992
-1.43335e-11
0.554334
0.0732544
-1.39737e-11
0.516613
0.0724703
-1.32555e-11
0.479296
0.0717449
-1.29626e-11
0.44235
0.0710762
-1.2394e-11
0.405745
0.0704623
-1.21552e-11
0.369449
0.0699018
-1.17231e-11
0.333433
0.0693931
-1.1533e-11
0.297669
0.0689349
-1.1242e-11
0.262128
0.0685261
-1.11243e-11
0.226784
0.0681657
-1.1026e-11
0.191609
0.067853
-1.10519e-11
0.156577
0.0675874
-1.12173e-11
0.121662
0.0673687
-1.13813e-11
0.0868369
0.0671969
-1.16999e-11
0.0520767
0.0670726
-1.23495e-11
0.017355
0.0669967
-1.47009e-11
-0.0173539
0.066971
-2.11041e-11
-0.0520756
0.0669967
-1.11565e-11
-0.0868358
0.0670726
-1.75633e-11
-0.121661
0.0671969
-5.08206e-12
0.0673686
-6.54154e-12
1.99642
3.33248
2.84474e-10
2.3635
3.28589
2.17832e-10
2.73187
3.22849
1.23544e-10
3.10057
3.15877
-3.16722e-11
3.46738
3.07489
-4.54101e-10
3.82788
2.97482
-4.61044e-10
4.17412
2.85654
-4.88581e-10
4.49333
2.7185
8.56534e-11
4.76755
2.56033
6.45777e-10
4.97708
2.38333
1.53177e-09
5.11017
2.19047
2.13099e-09
5.16791
1.98599
2.61698e-09
5.14282
1.77432
2.7905e-09
5.04392
1.56373
2.64381e-09
4.89347
1.36258
2.13792e-09
4.71439
1.17725
1.51908e-09
4.52396
1.01199
9.70868e-10
4.33215
0.869038
5.37439e-10
4.14337
0.748199
2.42119e-10
3.95955
0.64745
2.72908e-11
3.78202
0.56439
-9.61728e-11
3.61185
0.496619
-1.39251e-10
3.44985
0.441736
-1.20483e-10
3.29642
0.397437
-6.76332e-11
3.15162
0.361629
-3.3693e-12
3.01524
0.332508
5.76879e-11
2.88686
0.308584
1.04531e-10
2.76596
0.28867
1.34109e-10
2.65196
0.271847
1.47154e-10
2.54428
0.257415
1.46233e-10
2.44234
0.244854
1.37294e-10
2.3456
0.233773
1.22736e-10
2.25358
0.223887
1.0799e-10
2.16583
0.21498
9.29848e-11
2.08196
0.206891
8.10652e-11
2.00162
0.199496
7.03058e-11
1.9245
0.192701
6.27369e-11
1.85031
0.18643
5.5838e-11
1.77882
0.180622
5.12589e-11
1.7098
0.175228
4.66038e-11
1.64305
0.170207
4.35427e-11
1.5784
0.165523
3.99804e-11
1.5157
0.161148
3.76306e-11
1.45479
0.157057
3.46496e-11
1.39554
0.153226
3.27109e-11
1.33785
0.149637
3.01514e-11
1.2816
0.146272
2.85381e-11
1.22668
0.143116
2.63544e-11
1.17302
0.140156
2.50315e-11
1.12052
0.137379
2.31903e-11
1.0691
0.134774
2.21198e-11
1.0187
0.132332
2.05787e-11
0.969243
0.130042
1.97156e-11
0.920666
0.127898
1.84297e-11
0.87291
0.12589
1.77315e-11
0.825918
0.124013
1.66596e-11
0.779638
0.12226
1.60895e-11
0.73402
0.120626
1.51988e-11
0.689014
0.119105
1.4729e-11
0.644577
0.117692
1.39948e-11
0.600664
0.116383
1.36049e-11
0.557235
0.115174
1.30096e-11
0.514249
0.114062
1.26851e-11
0.471669
0.113043
1.22167e-11
0.429457
0.112114
1.19473e-11
0.387579
0.111272
1.15958e-11
0.345998
0.110516
1.13692e-11
0.304682
0.109842
1.11173e-11
0.263597
0.109251
1.09075e-11
0.222711
0.108739
1.07218e-11
0.181993
0.108306
1.0522e-11
0.141411
0.107951
1.04699e-11
0.100934
0.107674
1.0498e-11
0.0605309
0.107475
1.05808e-11
0.0201725
0.107355
9.79223e-12
-0.0201712
0.107315
6.42617e-12
-0.0605296
0.107355
1.26006e-11
-0.100932
0.107475
1.34261e-11
-0.141409
0.107674
2.15119e-11
0.107951
2.55968e-11
1.786
3.00947
-1.37147e-10
2.10728
2.96461
-2.13349e-10
2.42572
2.91005
-1.2786e-10
2.73959
2.84489
-1.50714e-10
3.0463
2.76819
-2.21162e-10
3.34209
2.67902
-1.19464e-10
3.62192
2.57671
-2.48135e-11
3.87947
2.46096
2.36485e-10
4.10768
2.33212
4.87885e-10
4.29974
2.19126
8.10077e-10
4.44997
2.04024
1.00941e-09
4.55425
1.88171
1.11253e-09
4.60951
1.71906
1.01582e-09
4.61669
1.55654
8.00912e-10
4.58063
1.39864
5.1854e-10
4.50836
1.24952
2.44656e-10
4.40765
1.1127
-2.02482e-12
4.28619
0.990498
-2.08427e-10
4.1507
0.883685
-3.48517e-10
4.00652
0.791631
-4.21416e-10
3.85791
0.713002
-4.3254e-10
3.7083
0.646227
-3.98765e-10
3.56036
0.58968
-3.38131e-10
3.41601
0.541789
-2.66973e-10
3.27653
0.501104
-1.98453e-10
3.14269
0.466352
-1.40658e-10
3.01482
0.436451
-9.66275e-11
2.89298
0.410506
-6.85663e-11
2.77703
0.387796
-5.16055e-11
2.66671
0.367745
-4.60042e-11
2.56166
0.349898
-4.41164e-11
2.46154
0.333896
-4.73881e-11
2.36597
0.319456
-4.90062e-11
2.2746
0.306351
-5.23257e-11
2.18709
0.2944
-5.21581e-11
2.10313
0.283456
-5.29206e-11
2.02243
0.273396
-5.0468e-11
1.94474
0.264121
-4.93032e-11
1.86982
0.255546
-4.57262e-11
1.79745
0.2476
-4.38385e-11
1.72743
0.240221
-4.01562e-11
1.6596
0.233357
-3.82903e-11
1.59379
0.226962
-3.49729e-11
1.52985
0.220997
-3.33871e-11
1.46765
0.215427
-3.05335e-11
1.40706
0.210221
-2.92406e-11
1.34798
0.205352
-2.68065e-11
1.2903
0.200795
-2.57506e-11
1.23393
0.19653
-2.3669e-11
1.17877
0.192536
-2.27966e-11
1.12475
0.188797
-2.10152e-11
1.07178
0.185296
-2.0291e-11
1.01981
0.18202
-1.87715e-11
0.968749
0.178955
-1.81713e-11
0.918549
0.176091
-1.68847e-11
0.869146
0.173415
-1.63893e-11
0.820487
0.17092
-1.53111e-11
0.772517
0.168596
-1.49029e-11
0.725187
0.166434
-1.40099e-11
0.67845
0.164429
-1.36726e-11
0.632259
0.162573
-1.29439e-11
0.586572
0.160861
-1.26617e-11
0.541347
0.159287
-1.20795e-11
0.496544
0.157846
-1.18397e-11
0.452124
0.156533
-1.13901e-11
0.408051
0.155346
-1.1186e-11
0.364287
0.15428
-1.08692e-11
0.320797
0.153332
-1.07136e-11
0.277547
0.1525
-1.05626e-11
0.234504
0.151782
-1.04955e-11
0.191634
0.151176
-1.05392e-11
0.148905
0.15068
-1.051e-11
0.106284
0.150295
-1.06252e-11
0.06374
0.150019
-1.11051e-11
0.021242
0.149853
-1.35229e-11
-0.0212408
0.149798
-2.06016e-11
-0.0637387
0.149853
-9.55922e-12
-0.106282
0.150019
-1.74907e-11
-0.148903
0.150295
-4.02738e-12
0.15068
-7.02853e-12
1.62072
2.71899
9.87362e-11
1.90761
2.67772
1.78042e-10
2.18961
2.62805
1.55289e-10
2.46496
2.56954
2.29258e-10
2.7314
2.50175
2.02177e-10
2.98608
2.42434
2.13057e-10
3.22562
2.33717
2.33639e-10
3.4462
2.24038
3.14091e-10
3.64377
2.13454
4.17165e-10
3.81438
2.02065
4.90927e-10
3.95442
1.9002
5.45438e-10
4.06096
1.77517
5.64561e-10
4.13205
1.64797
5.19627e-10
4.16726
1.52133
4.39873e-10
4.16781
1.39809
3.35781e-10
4.13649
1.28084
2.3126e-10
4.07752
1.17167
1.40997e-10
3.99611
1.07191
7.62682e-11
3.89774
0.982054
4.43792e-11
3.78742
0.901951
3.53361e-11
3.6694
0.83103
5.02803e-11
3.54712
0.7685
8.42692e-11
3.42333
0.713472
1.16369e-10
3.30008
0.665039
1.50593e-10
3.17885
0.62233
1.74053e-10
3.06066
0.584548
1.91276e-10
2.94612
0.550989
1.9613e-10
2.83558
0.521045
1.94449e-10
2.72918
0.494201
1.84741e-10
2.6269
0.470026
1.72043e-10
2.52863
0.44816
1.56702e-10
2.43423
0.4283
1.41707e-10
2.34349
0.410198
1.2736e-10
2.2562
0.393641
1.14708e-10
2.17215
0.378451
1.03729e-10
2.09113
0.364478
9.43122e-11
2.01293
0.351591
8.64026e-11
1.93737
0.339681
7.94313e-11
1.86427
0.32865
7.3557e-11
1.79345
0.318415
6.80952e-11
1.72477
0.308904
6.34523e-11
1.65807
0.300052
5.89246e-11
1.59323
0.291804
5.50919e-11
1.53012
0.284109
5.12388e-11
1.46862
0.276925
4.80314e-11
1.40863
0.270211
4.47424e-11
1.35005
0.263933
4.20644e-11
1.29279
0.25806
3.92725e-11
1.23675
0.252564
3.705e-11
1.18187
0.24742
3.4693e-11
1.12806
0.242606
3.28548e-11
1.07526
0.2381
3.08712e-11
1.02339
0.233884
2.93505e-11
0.972406
0.229942
2.76833e-11
0.922238
0.226258
2.64228e-11
0.872834
0.222819
2.50248e-11
0.824141
0.219613
2.39772e-11
0.77611
0.216627
2.28099e-11
0.728693
0.213851
2.19381e-11
0.681845
0.211277
2.09723e-11
0.635523
0.208895
2.02479e-11
0.589686
0.206698
1.94611e-11
0.544294
0.204679
1.8862e-11
0.499308
0.202831
1.82373e-11
0.454691
0.20115
1.7747e-11
0.410409
0.199629
1.72725e-11
0.366425
0.198264
1.68799e-11
0.322705
0.197051
1.65467e-11
0.279218
0.195988
1.62442e-11
0.235929
0.195071
1.60495e-11
0.192808
0.194297
1.58754e-11
0.149822
0.193666
1.59272e-11
0.106942
0.193175
1.61253e-11
0.0641355
0.192825
1.6437e-11
0.021374
0.192615
1.60225e-11
-0.0213728
0.192544
1.32562e-11
-0.0641343
0.192615
1.87711e-11
-0.10694
0.192825
2.02019e-11
-0.149821
0.193175
2.7582e-11
0.193666
3.1366e-11
1.45718
2.45969
-3.98661e-10
1.7119
2.42299
-4.39984e-10
1.96071
2.37925
-2.96484e-10
2.20197
2.32828
-2.9132e-10
2.43373
2.26999
-2.92853e-10
2.65373
2.20434
-2.85071e-10
2.85941
2.13149
-2.80461e-10
3.04801
2.05178
-2.57843e-10
3.21672
1.96583
-2.44422e-10
3.36282
1.87455
-2.23927e-10
3.4839
1.77912
-2.21442e-10
3.57807
1.681
-2.26052e-10
3.64423
1.58181
-2.46746e-10
3.68226
1.48331
-2.72666e-10
3.69319
1.38715
-2.99735e-10
3.67919
1.29484
-3.19294e-10
3.64334
1.20752
-3.27685e-10
3.58927
1.12599
-3.24249e-10
3.52067
1.05065
-3.09973e-10
3.44104
0.98158
-2.79379e-10
3.35345
0.918621
-2.21659e-10
3.26051
0.861444
-1.96611e-10
3.16435
0.809626
-1.64922e-10
3.06669
0.762699
-1.31612e-10
2.96884
0.720186
-1.06575e-10
2.87176
0.681629
-8.72296e-11
2.77614
0.646601
-7.45884e-11
2.68247
0.614715
-6.6751e-11
2.59105
0.585627
-6.29484e-11
2.50204
0.559032
-6.13961e-11
2.41554
0.534664
-6.02772e-11
2.33155
0.512287
-6.03081e-11
2.25005
0.491698
-5.91884e-11
2.17097
0.472717
-5.86194e-11
2.09424
0.455185
-5.64291e-11
2.01975
0.438964
-5.49493e-11
1.94741
0.423932
-5.199e-11
1.87711
0.40998
-5.00412e-11
1.80875
0.397013
-4.68585e-11
1.74222
0.384945
-4.48716e-11
1.67742
0.373702
-4.18256e-11
1.61426
0.363214
-4.0014e-11
1.55264
0.353423
-3.72467e-11
1.49248
0.344274
-3.56613e-11
1.43368
0.33572
-3.31919e-11
1.37618
0.327716
-3.18168e-11
1.31988
0.320224
-2.96277e-11
1.26474
0.313209
-2.84346e-11
1.21066
0.306638
-2.65025e-11
1.1576
0.300484
-2.54689e-11
1.10548
0.294721
-2.37749e-11
1.05426
0.289324
-2.28845e-11
1.00387
0.284272
-2.14128e-11
0.954267
0.279546
-2.065e-11
0.905397
0.275128
-1.93836e-11
0.857214
0.271002
-1.87338e-11
0.809673
0.267154
-1.76555e-11
0.76273
0.26357
-1.71028e-11
0.716343
0.260238
-1.61944e-11
0.670474
0.257147
-1.57231e-11
0.625083
0.254286
-1.49679e-11
0.580134
0.251647
-1.45641e-11
0.535591
0.249222
-1.39476e-11
0.49142
0.247003
-1.35991e-11
0.447587
0.244982
-1.31106e-11
0.40406
0.243156
-1.28111e-11
0.360807
0.241517
-1.24476e-11
0.317797
0.240061
-1.22009e-11
0.275
0.238785
-1.19812e-11
0.232386
0.237684
-1.18084e-11
0.189926
0.236757
-1.17468e-11
0.147592
0.236
-1.15993e-11
0.105354
0.235413
-1.16095e-11
0.0631852
0.234994
-1.18939e-11
0.0210575
0.234742
-1.37915e-11
-0.0210564
0.234658
-1.94078e-11
-0.0631841
0.234742
-1.11666e-11
-0.105353
0.234994
-1.88042e-11
-0.147591
0.235413
-8.64903e-12
0.236
-1.2287e-11
1.28182
2.23315
-1.27904e-10
1.50324
2.20157
1.43687e-11
1.71826
2.16422
5.9137e-11
1.92544
2.1211
2.33015e-10
2.12314
2.07229
2.21433e-10
2.30956
2.01793
1.84533e-10
2.48277
1.95827
1.46468e-10
2.64082
1.89373
1.30709e-10
2.78181
1.82485
1.15911e-10
2.90401
1.75234
1.13116e-10
3.00605
1.67708
1.04981e-10
3.087
1.60005
1.03769e-10
3.1465
1.52231
9.65947e-11
3.18489
1.44492
9.58362e-11
3.20315
1.36889
9.17406e-11
3.20286
1.29512
9.55389e-11
3.18604
1.22434
9.73871e-11
3.15496
1.15707
1.07115e-10
3.11196
1.09365
1.13458e-10
3.0593
1.03425
1.2559e-10
2.99904
0.978879
1.31497e-10
2.93302
0.927459
1.41796e-10
2.86282
0.879825
1.44946e-10
2.78976
0.835767
1.49736e-10
2.71489
0.795052
1.47009e-10
2.63908
0.757438
1.45388e-10
2.563
0.722684
1.38245e-10
2.48715
0.69056
1.22963e-10
2.41193
0.660848
1.29013e-10
2.33762
0.633345
1.16726e-10
2.26442
0.607865
1.03388e-10
2.19247
0.584237
9.66144e-11
2.12186
0.562305
8.87298e-11
2.05265
0.541926
8.2728e-11
1.98486
0.522972
7.62508e-11
1.9185
0.505326
7.12677e-11
1.85355
0.488882
6.60119e-11
1.78999
0.473543
6.18243e-11
1.72778
0.459223
5.74615e-11
1.66688
0.445843
5.38488e-11
1.60725
0.433332
5.01585e-11
1.54884
0.421625
4.70069e-11
1.4916
0.410664
4.38705e-11
1.43548
0.400396
4.11291e-11
1.38043
0.390771
3.84763e-11
1.32639
0.381748
3.61119e-11
1.27333
0.373285
3.38819e-11
1.22119
0.365347
3.18581e-11
1.16993
0.357901
2.99925e-11
1.1195
0.350917
2.82686e-11
1.06985
0.344367
2.67096e-11
1.02095
0.338227
2.52451e-11
0.972748
0.332473
2.39411e-11
0.925208
0.327086
2.26996e-11
0.878291
0.322045
2.16072e-11
0.83196
0.317334
2.05586e-11
0.786179
0.312936
1.9643e-11
0.740912
0.308837
1.87661e-11
0.696125
0.305024
1.80102e-11
0.651787
0.301485
1.72889e-11
0.607864
0.298209
1.66555e-11
0.564327
0.295185
1.60638e-11
0.521144
0.292405
1.55281e-11
0.478286
0.28986
1.50457e-11
0.435726
0.287543
1.45841e-11
0.393434
0.285448
1.42021e-11
0.351383
0.283567
1.38399e-11
0.309547
0.281898
1.36049e-11
0.267899
0.280433
1.33626e-11
0.226412
0.279171
1.32608e-11
0.185062
0.278107
1.31437e-11
0.143823
0.27724
1.32406e-11
0.10267
0.276566
1.34363e-11
0.0615776
0.276086
1.38719e-11
0.0205221
0.275798
1.41108e-11
-0.0205211
0.275702
1.35403e-11
-0.0615766
0.275798
1.48566e-11
-0.102669
0.276086
1.72557e-11
-0.143822
0.276566
1.96362e-11
0.27724
2.30483e-11
1.10123
2.0396
-5.87521e-10
1.2897
2.0131
-5.31139e-10
1.47198
1.98194
-3.11147e-10
1.64686
1.94622
-1.91826e-10
1.81307
1.90608
-1.79236e-10
1.96928
1.86172
-1.95842e-10
2.11414
1.81341
-2.17525e-10
2.24635
1.76152
-2.27822e-10
2.36472
1.70648
-2.38726e-10
2.46824
1.64883
-2.39727e-10
2.55616
1.58917
-2.42599e-10
2.62806
1.52816
-2.36462e-10
2.68389
1.46648
-2.32312e-10
2.72398
1.40482
-2.20005e-10
2.74905
1.34382
-2.09991e-10
2.76013
1.28405
-1.93046e-10
2.75847
1.226
-1.79351e-10
2.74549
1.17004
-1.60398e-10
2.72268
1.11647
-1.46032e-10
2.69147
1.06545
-1.28209e-10
2.65326
1.01709
-1.16015e-10
2.60931
0.971411
-1.0189e-10
2.56075
0.92839
-9.3546e-11
2.50855
0.887961
-8.40929e-11
2.45357
0.85003
-7.95994e-11
2.39653
0.814484
-7.41325e-11
2.33801
0.781202
-7.21697e-11
2.27851
0.750056
-6.91104e-11
2.21844
0.720919
-6.85879e-11
2.15813
0.693663
-6.69169e-11
2.09782
0.668167
-6.79596e-11
2.03775
0.644313
-5.93787e-11
1.97806
0.621989
-6.29198e-11
1.9189
0.601092
-6.00618e-11
1.86035
0.581521
-5.79755e-11
1.80249
0.563186
-5.57832e-11
1.74537
0.546001
-5.3531e-11
1.68903
0.529887
-5.14294e-11
1.63348
0.51477
-4.91374e-11
1.57874
0.500582
-4.71746e-11
1.52481
0.487262
-4.49353e-11
1.47168
0.474751
-4.31321e-11
1.41935
0.462998
-4.09955e-11
1.36779
0.451952
-3.93514e-11
1.317
0.44157
-3.73426e-11
1.26693
0.43181
-3.5849e-11
1.21759
0.422634
-3.39844e-11
1.16893
0.414008
-3.26355e-11
1.12093
0.4059
-3.0927e-11
1.07356
0.398281
-2.97181e-11
1.02681
0.391123
-2.81726e-11
0.980633
0.384402
-2.70982e-11
0.935012
0.378094
-2.57179e-11
0.889917
0.37218
-2.47698e-11
0.845322
0.36664
-2.35512e-11
0.801199
0.361456
-2.27182e-11
0.757523
0.356612
-2.16535e-11
0.714267
0.352093
-2.09234e-11
0.671406
0.347885
-2.00026e-11
0.628914
0.343977
-1.93622e-11
0.586767
0.340356
-1.85762e-11
0.544941
0.337012
-1.80162e-11
0.50341
0.333935
-1.7366e-11
0.462152
0.331118
-1.68893e-11
0.421144
0.328552
-1.63663e-11
0.380362
0.32623
-1.59568e-11
0.339783
0.324146
-1.55545e-11
0.299387
0.322294
-1.52117e-11
0.259149
0.320671
-1.4941e-11
0.219049
0.319271
-1.46742e-11
0.179065
0.318091
-1.45466e-11
0.139175
0.317129
-1.43348e-11
0.0993589
0.316383
-1.43389e-11
0.0595947
0.31585
-1.44765e-11
0.0198617
0.315531
-1.56976e-11
-0.0198608
0.315424
-1.90061e-11
-0.0595938
0.315531
-1.46705e-11
-0.0993579
0.31585
-2.09483e-11
-0.139174
0.316383
-1.54269e-11
0.317129
-1.95475e-11
0.932722
1.87618
-3.36971e-10
1.09154
1.85428
-2.05907e-10
1.24485
1.82864
-6.47997e-11
1.39171
1.79936
1.07694e-10
1.53116
1.76663
1.01374e-10
1.66226
1.73062
6.41394e-11
1.78409
1.69159
2.61636e-11
1.89578
1.64982
8.27739e-12
1.9966
1.60566
-7.48748e-12
2.08593
1.5595
-9.71818e-12
2.16334
1.51175
-1.46214e-11
2.22864
1.46286
-8.31301e-12
2.28182
1.4133
-6.71875e-12
2.32313
1.36351
4.72628e-12
2.35303
1.31392
1.00009e-11
2.37216
1.26492
2.37226e-11
2.38131
1.21685
3.01095e-11
2.38136
1.17
4.34265e-11
2.37323
1.1246
4.86672e-11
2.35787
1.08081
5.94216e-11
2.33618
1.03877
6.20088e-11
2.30905
0.998542
6.90598e-11
2.27727
0.960171
6.86038e-11
2.24157
0.92366
7.20055e-11
2.20261
0.888994
6.91055e-11
2.16096
0.856135
6.97747e-11
2.11713
0.825033
6.55311e-11
2.07156
0.795627
6.4628e-11
2.02462
0.76785
6.00529e-11
1.97666
0.741629
5.84753e-11
1.92793
0.71689
5.41567e-11
1.87869
0.693559
5.22666e-11
1.82912
0.671561
4.84909e-11
1.77938
0.650824
4.67901e-11
1.72963
0.631276
4.34087e-11
1.67996
0.612851
4.17213e-11
1.63048
0.595483
3.87385e-11
1.58126
0.579111
3.71033e-11
1.53235
0.563677
3.44745e-11
1.48381
0.549125
3.29206e-11
1.43567
0.535405
3.06183e-11
1.38795
0.522468
2.91754e-11
1.34068
0.51027
2.71789e-11
1.29386
0.498767
2.58692e-11
1.24751
0.487921
2.41542e-11
1.20162
0.477695
2.2986e-11
1.1562
0.468055
2.15229e-11
1.11124
0.45897
2.04939e-11
1.06673
0.45041
1.92506e-11
1.02266
0.442349
1.8351e-11
0.979027
0.43476
1.72959e-11
0.935807
0.427621
1.6515e-11
0.892991
0.420911
1.56193e-11
0.850563
0.414608
1.4945e-11
0.808508
0.408695
1.41847e-11
0.766809
0.403155
1.36077e-11
0.725451
0.397971
1.29629e-11
0.684414
0.393129
1.24749e-11
0.643683
0.388616
1.19292e-11
0.60324
0.38442
1.15249e-11
0.563067
0.380529
1.10651e-11
0.523146
0.376933
1.07389e-11
0.48346
0.373621
1.03541e-11
0.44399
0.370587
1.01016e-11
0.40472
0.367822
9.78386e-12
0.365631
0.365318
9.60377e-12
0.326706
0.363071
9.35145e-12
0.287928
0.361073
9.25013e-12
0.249278
0.35932
9.07864e-12
0.21074
0.357809
9.07817e-12
0.172296
0.356535
9.02983e-12
0.133929
0.355497
9.17837e-12
0.0956209
0.35469
9.34727e-12
0.0573557
0.354115
9.85777e-12
0.019116
0.35377
1.06406e-11
-0.0191152
0.353655
1.21365e-11
-0.0573549
0.35377
1.0052e-11
-0.09562
0.354115
1.32922e-11
-0.133928
0.35469
1.15897e-11
0.355497
1.38826e-11
0.78601
1.73861
-4.08273e-10
0.919642
1.72065
-3.19076e-10
1.04862
1.69966
-1.41039e-10
1.17223
1.67576
-2.1747e-12
1.28975
1.6491
-9.92649e-12
1.40052
1.61985
-4.4761e-11
1.50389
1.58822
-7.84242e-11
1.59928
1.55443
-9.33859e-11
1.6862
1.51874
-1.06942e-10
1.76426
1.48144
-1.08104e-10
1.8332
1.44281
-1.12972e-10
1.89288
1.40318
-1.0764e-10
1.94331
1.36287
-1.07984e-10
1.98464
1.32218
-9.92135e-11
2.01715
1.28141
-9.72125e-11
2.04122
1.24085
-8.7109e-11
2.05734
1.20073
-8.43863e-11
2.06605
1.16129
-7.46458e-11
2.06795
1.1227
-7.24412e-11
2.06364
1.08512
-6.42664e-11
2.05374
1.04867
-6.32747e-11
2.03885
1.01344
-5.71788e-11
2.01953
0.979491
-5.74459e-11
1.99632
0.946869
-5.32652e-11
1.96972
0.915594
-5.43549e-11
1.94018
0.88567
-5.15306e-11
1.90813
0.857088
-5.28528e-11
1.87393
0.82983
-5.07798e-11
1.83791
0.803866
-5.18793e-11
1.80038
0.779161
-5.0131e-11
1.76159
0.755677
-5.07762e-11
1.72178
0.733369
-4.9133e-11
1.68115
0.712193
-4.93004e-11
1.63987
0.692101
-4.76982e-11
1.5981
0.673046
-4.74366e-11
1.55597
0.654983
-4.58672e-11
1.51359
0.637863
-4.52785e-11
1.47106
0.621643
-4.37482e-11
1.42845
0.606279
-4.29136e-11
1.38585
0.591729
-4.14276e-11
1.3433
0.577952
-4.04171e-11
1.30086
0.56491
-3.89816e-11
1.25857
0.552566
-3.78564e-11
1.21645
0.540886
-3.64797e-11
1.17453
0.529837
-3.5294e-11
1.13284
0.519387
-3.3988e-11
1.09139
0.509509
-3.27888e-11
1.05018
0.500174
-3.15645e-11
1.00924
0.491357
-3.03906e-11
0.96855
0.483034
-2.92573e-11
0.928128
0.475182
-2.81381e-11
0.887969
0.46778
-2.71011e-11
0.848071
0.460809
-2.60576e-11
0.808428
0.454251
-2.51189e-11
0.769035
0.448087
-2.41647e-11
0.729886
0.442304
-2.3322e-11
0.690973
0.436884
-2.24647e-11
0.652286
0.431816
-2.17137e-11
0.613816
0.427087
-2.09561e-11
0.575552
0.422684
-2.02908e-11
0.537484
0.418597
-1.96331e-11
0.499601
0.414816
-1.90472e-11
0.461891
0.411332
-1.84883e-11
0.424342
0.408136
-1.79762e-11
0.386941
0.405222
-1.75157e-11
0.349677
0.402583
-1.70745e-11
0.312536
0.400211
-1.67151e-11
0.275506
0.398103
-1.63464e-11
0.238573
0.396253
-1.60973e-11
0.201726
0.394656
-1.58053e-11
0.164951
0.393311
-1.56836e-11
0.128234
0.392213
-1.54849e-11
0.0915633
0.391361
-1.55551e-11
0.0549251
0.390753
-1.56067e-11
0.0183065
0.390389
-1.61612e-11
-0.0183057
0.390267
-1.70942e-11
-0.0549244
0.390389
-1.66827e-11
-0.0915626
0.390753
-2.12581e-11
-0.128233
0.391361
-2.07234e-11
0.392213
-2.46684e-11
0.662723
1.62258
-3.72885e-10
0.775507
1.60786
-2.95644e-10
0.884476
1.59069
-1.3229e-10
0.989078
1.57116
-4.58671e-12
1.08878
1.54939
-1.41683e-11
1.18309
1.52554
-4.40038e-11
1.27155
1.49976
-7.03801e-11
1.35374
1.47223
-7.74031e-11
1.42933
1.44315
-8.35678e-11
1.49805
1.41272
-7.82294e-11
1.5597
1.38116
-7.7553e-11
1.61419
1.3487
-6.77509e-11
1.6615
1.31556
-6.44216e-11
1.70171
1.28197
-5.28582e-11
1.73498
1.24814
-4.85807e-11
1.76155
1.21428
-3.67588e-11
1.7817
1.18058
-3.25451e-11
1.79577
1.14721
-2.15078e-11
1.80416
1.11432
-1.80285e-11
1.80724
1.08203
-8.46821e-12
1.80545
1.05046
-6.07896e-12
1.79919
1.0197
1.69624e-12
1.78887
0.989815
2.96061e-12
1.77487
0.960864
8.99142e-12
1.75758
0.932885
9.32651e-12
1.73735
0.905905
1.38643e-11
1.7145
0.879937
1.35487e-11
1.68934
0.854987
1.68998e-11
1.66216
0.83105
1.61789e-11
1.6332
0.808116
1.86092e-11
1.60271
0.786169
1.76541e-11
1.57089
0.765188
1.93677e-11
1.53794
0.745148
1.8285e-11
1.50401
0.726024
1.94409e-11
1.46927
0.707785
1.83012e-11
1.43385
0.690403
1.90266e-11
1.39787
0.673846
1.78807e-11
1.36143
0.658084
1.82856e-11
1.32462
0.643085
1.71744e-11
1.28753
0.628819
1.73497e-11
1.25023
0.615256
1.63017e-11
1.21277
0.602367
1.63197e-11
1.17521
0.590124
1.5352e-11
1.1376
0.5785
1.52659e-11
1.09997
0.567467
1.43859e-11
1.06236
0.557002
1.42338e-11
1.02478
0.54708
1.34412e-11
0.987281
0.537678
1.32502e-11
0.949862
0.528775
1.25404e-11
0.912545
0.520351
1.23296e-11
0.875341
0.512386
1.16971e-11
0.83826
0.504862
1.14805e-11
0.801308
0.497762
1.09187e-11
0.76449
0.491069
1.07066e-11
0.727809
0.484768
1.02099e-11
0.691266
0.478847
1.00109e-11
0.65486
0.47329
9.57366e-12
0.618591
0.468085
9.39429e-12
0.582455
0.463222
9.01219e-12
0.546449
0.45869
8.85781e-12
0.510568
0.454478
8.52646e-12
0.474806
0.450577
8.40075e-12
0.439158
0.44698
8.1168e-12
0.403616
0.443678
8.02283e-12
0.368175
0.440664
7.78389e-12
0.332826
0.437932
7.72531e-12
0.297561
0.435476
7.53455e-12
0.262372
0.433292
7.523e-12
0.227251
0.431374
7.40156e-12
0.192189
0.429719
7.46503e-12
0.157177
0.428323
7.45107e-12
0.122206
0.427184
7.60986e-12
0.0872671
0.4263
7.7351e-12
0.0523512
0.425669
8.26236e-12
0.0174491
0.425291
9.39498e-12
-0.0174485
0.425165
1.22369e-11
-0.0523506
0.425291
7.73396e-12
-0.0872665
0.425669
1.16781e-11
-0.122205
0.4263
6.87001e-12
0.427184
8.96741e-12
0.56067
1.52429
-2.11154e-10
0.656328
1.51221
-1.27804e-10
0.748903
1.49811
-1.28664e-11
0.837969
1.48209
1.02751e-10
0.923121
1.46424
8.00441e-11
1.00398
1.44468
4.12998e-11
1.08021
1.42353
7.85609e-12
1.15151
1.40094
-4.31943e-12
1.21762
1.37704
-1.56238e-11
1.27834
1.352
-1.50804e-11
1.33352
1.32598
-2.01729e-11
1.38308
1.29914
-1.61837e-11
1.42699
1.27165
-1.96783e-11
1.46528
1.24368
-1.48386e-11
1.49802
1.21539
-1.80025e-11
1.52537
1.18694
-1.32374e-11
1.54749
1.15846
-1.64475e-11
1.56461
1.1301
-1.21733e-11
1.57695
1.10197
-1.5529e-11
1.5848
1.07418
-1.19475e-11
1.58842
1.04684
-1.5423e-11
1.58811
1.02001
-1.25824e-11
1.58415
0.993773