/*--------------------------------*- C++ -*----------------------------------*\
| =========                 |                                                 |
| \\      /  F ield         | OpenFOAM: The Open Source CFD Toolbox           |
|  \\    /   O peration     | Version:  2306                                  |
|   \\  /    A nd           | Website:  www.openfoam.com                      |
|    \\/     M anipulation  |                                                 |
\*---------------------------------------------------------------------------*/
FoamFile
{
    version     2.0;
    format      ascii;
    arch        "LSB;label=32;scalar=64";
    class       volVectorField;
    location    "100";
    object      U;
}
// * * * * * * * * * * * * * * * * * * * * * * * * * * * * * * * * * * * * * //

dimensions      [0 1 -1 0 0 0 0];

internalField   nonuniform List<vector> 
14400
(
(0.0341098 0.496628 1.23168e-10)
(0.041406 0.497072 5.33821e-11)
(0.0488797 0.49777 -7.06048e-12)
(0.0565077 0.498766 -5.40948e-11)
(0.0642747 0.49995 -1.47705e-10)
(0.072197 0.500714 -2.03465e-10)
(0.0804814 0.499025 -3.70802e-10)
(0.0909202 0.488716 -3.04579e-10)
(0.11148 0.451238 -7.47569e-10)
(0.139811 0.336517 -1.24867e-10)
(0.209026 0.0134366 -3.47947e-10)
(0.0677338 -0.028727 -1.86068e-10)
(0.0645176 0.00342395 -1.24256e-10)
(0.0601061 0.00880508 -8.78201e-11)
(0.0512202 0.00795105 -6.14671e-11)
(0.0438459 0.00428959 -3.45724e-11)
(0.0371863 0.00150932 -1.66536e-11)
(0.0316777 0.0003581 -1.0312e-11)
(0.0275894 -0.000235186 -2.77864e-12)
(0.024705 -0.000646505 4.29656e-14)
(0.0227111 -0.000892861 3.27552e-12)
(0.0213439 -0.00100149 3.12872e-12)
(0.0204021 -0.00101449 2.84449e-12)
(0.0197356 -0.000967834 1.1712e-12)
(0.0192361 -0.000887899 -3.3546e-13)
(0.0188294 -0.000792941 -1.81945e-12)
(0.0184671 -0.000694877 -2.95093e-12)
(0.0181195 -0.000600902 -3.58315e-12)
(0.0177695 -0.000514886 -3.98452e-12)
(0.0174086 -0.000438481 -3.94463e-12)
(0.0170337 -0.000371959 -3.89185e-12)
(0.0166445 -0.0003148 -3.56802e-12)
(0.0162426 -0.000266091 -3.37954e-12)
(0.0158301 -0.000224774 -3.02373e-12)
(0.0154096 -0.000189795 -2.8577e-12)
(0.0149832 -0.000160179 -2.55586e-12)
(0.0145532 -0.000135065 -2.44469e-12)
(0.0141213 -0.000113714 -2.19854e-12)
(0.0136891 -9.55052e-05 -2.1272e-12)
(0.0132578 -7.99185e-05 -1.91923e-12)
(0.0128283 -6.65257e-05 -1.86955e-12)
(0.0124016 -5.49731e-05 -1.68759e-12)
(0.011978 -4.49696e-05 -1.64965e-12)
(0.0115582 -3.62755e-05 -1.4889e-12)
(0.0111425 -2.86926e-05 -1.45894e-12)
(0.0107309 -2.2057e-05 -1.31812e-12)
(0.0103238 -1.62325e-05 -1.29472e-12)
(0.00992116 -1.11055e-05 -1.17329e-12)
(0.00952299 -6.58079e-06 -1.15547e-12)
(0.00912928 -2.57825e-06 -1.05264e-12)
(0.00873996 9.69765e-07 -1.03929e-12)
(0.00835494 4.12067e-06 -9.5405e-13)
(0.00797411 6.92339e-06 -9.44055e-13)
(0.00759735 9.41977e-06 -8.75352e-13)
(0.0072245 1.16457e-05 -8.67725e-13)
(0.00685541 1.36321e-05 -8.14662e-13)
(0.00648993 1.54056e-05 -8.0861e-13)
(0.00612788 1.69893e-05 -7.70478e-13)
(0.00576908 1.8403e-05 -7.6542e-13)
(0.00541337 1.9664e-05 -7.41698e-13)
(0.00506057 2.0787e-05 -7.37198e-13)
(0.0047105 2.17848e-05 -7.27516e-13)
(0.00436299 2.26682e-05 -7.23233e-13)
(0.00401785 2.34462e-05 -7.27301e-13)
(0.00367492 2.41263e-05 -7.22964e-13)
(0.00333402 2.47143e-05 -7.40634e-13)
(0.00299498 2.52149e-05 -7.36304e-13)
(0.00265764 2.56314e-05 -7.67754e-13)
(0.00232182 2.5966e-05 -7.64748e-13)
(0.00198737 2.62206e-05 -8.108e-13)
(0.00165412 2.63968e-05 -8.13009e-13)
(0.00132191 2.64974e-05 -8.75536e-13)
(0.000990581 2.65279e-05 -8.83419e-13)
(0.000659953 2.64993e-05 -9.63667e-13)
(0.000329844 2.64355e-05 -9.71645e-13)
(-1.74616e-09 2.63988e-05 -1.03899e-12)
(-0.000329847 2.64354e-05 -1.15285e-12)
(-0.000659956 2.64991e-05 -3.482e-13)
(-0.000990584 2.65276e-05 -2.90845e-12)
(-0.00132192 2.64969e-05 -2.57137e-13)
(0.0744063 0.463844 1.3747e-10)
(0.0913422 0.462002 6.99228e-11)
(0.109569 0.459794 -2.0258e-12)
(0.129478 0.457104 -5.59562e-11)
(0.151572 0.453621 -1.61013e-10)
(0.176445 0.448591 -2.56943e-10)
(0.2047 0.440347 -4.37575e-10)
(0.236786 0.425482 -5.50231e-10)
(0.272259 0.397561 -7.10778e-10)
(0.302926 0.346563 -7.74262e-10)
(0.301552 0.272342 -6.32404e-10)
(0.258963 0.205152 -5.20516e-10)
(0.221047 0.108694 -3.19812e-10)
(0.18502 0.0539466 -1.41859e-10)
(0.157518 0.0406858 -1.01316e-10)
(0.138644 0.0366659 -4.89133e-11)
(0.124103 0.0317257 -1.97616e-11)
(0.111937 0.0254197 -1.1303e-11)
(0.101742 0.0192076 4.05543e-13)
(0.0934191 0.014088 2.50574e-12)
(0.0867246 0.0102286 6.31835e-12)
(0.0812668 0.00745519 5.15466e-12)
(0.0767361 0.00554063 4.5334e-12)
(0.0729077 0.00427131 2.12774e-12)
(0.0696059 0.00346615 1.94325e-13)
(0.0666945 0.00298123 -1.6977e-12)
(0.0640725 0.00270789 -3.01729e-12)
(0.061667 0.00256775 -3.82988e-12)
(0.0594261 0.00250671 -4.20751e-12)
(0.0573135 0.00248897 -4.24045e-12)
(0.0553038 0.00249191 -4.08005e-12)
(0.0533793 0.00250197 -3.79877e-12)
(0.0515277 0.00251156 -3.50404e-12)
(0.0497398 0.00251685 -3.18912e-12)
(0.0480091 0.00251631 -2.94467e-12)
(0.0463305 0.00250969 -2.68393e-12)
(0.0446999 0.00249743 -2.51907e-12)
(0.0431142 0.00248028 -2.3092e-12)
(0.0415704 0.0024591 -2.19982e-12)
(0.0400661 0.00243472 -2.02014e-12)
(0.0385991 0.00240792 -1.94176e-12)
(0.0371673 0.00237937 -1.77985e-12)
(0.0357689 0.00234965 -1.71961e-12)
(0.0344021 0.00231925 -1.57188e-12)
(0.0330651 0.00228855 -1.52484e-12)
(0.0317565 0.00225788 -1.39151e-12)
(0.0304746 0.00222751 -1.35573e-12)
(0.0292182 0.00219765 -1.23747e-12)
(0.0279857 0.00216845 -1.21156e-12)
(0.0267759 0.00214006 -1.10847e-12)
(0.0255876 0.00211257 -1.09103e-12)
(0.0244195 0.00208606 -1.0026e-12)
(0.0232704 0.00206057 -9.92248e-13)
(0.0221394 0.00203616 -9.17787e-13)
(0.0210252 0.00201285 -9.13374e-13)
(0.0199269 0.00199066 -8.52149e-13)
(0.0188436 0.00196959 -8.5284e-13)
(0.0177742 0.00194966 -8.04179e-13)
(0.0167178 0.00193085 -8.09415e-13)
(0.0156736 0.00191316 -7.72759e-13)
(0.0146408 0.00189658 -7.82189e-13)
(0.0136185 0.00188111 -7.57045e-13)
(0.0126059 0.00186671 -7.70468e-13)
(0.0116022 0.00185339 -7.56361e-13)
(0.0106067 0.00184111 -7.73627e-13)
(0.00961873 0.00182987 -7.70128e-13)
(0.00863751 0.00181965 -7.91319e-13)
(0.00766236 0.00181042 -7.98191e-13)
(0.00669261 0.00180218 -8.24203e-13)
(0.0057276 0.0017949 -8.41809e-13)
(0.00476666 0.0017886 -8.75127e-13)
(0.00380913 0.00178327 -9.0484e-13)
(0.00285438 0.00177895 -9.4538e-13)
(0.00190173 0.00177569 -9.85868e-13)
(0.000950566 0.0017736 -1.03229e-12)
(1.20221e-08 0.00177286 -1.06365e-12)
(-0.000950542 0.0017736 -1.17854e-12)
(-0.0019017 0.00177569 -6.80391e-13)
(-0.00285435 0.00177895 -2.22813e-12)
(-0.00380911 0.00178327 -1.12431e-12)
(0.0820558 0.412887 4.60659e-11)
(0.0993706 0.40816 6.61e-12)
(0.117207 0.40221 -5.08867e-11)
(0.135675 0.394738 -8.75636e-11)
(0.154871 0.385305 -1.65179e-10)
(0.174831 0.37326 -2.06749e-10)
(0.195413 0.357697 -3.18625e-10)
(0.216069 0.337501 -3.47698e-10)
(0.235348 0.311688 -4.28923e-10)
(0.249897 0.280226 -3.96021e-10)
(0.254992 0.245618 -3.46061e-10)
(0.250265 0.212805 -2.42977e-10)
(0.238261 0.17812 -1.5644e-10)
(0.220432 0.144552 -8.33907e-11)
(0.201636 0.115278 -4.79166e-11)
(0.185304 0.0916886 -2.33057e-11)
(0.171718 0.0734347 -6.40315e-12)
(0.160106 0.0591564 -3.18099e-12)
(0.149865 0.0476533 4.30283e-12)
(0.140754 0.0383324 3.15154e-12)
(0.132678 0.0309419 4.73401e-12)
(0.1255 0.0252416 2.10582e-12)
(0.119067 0.0209485 6.77535e-13)
(0.113264 0.017775 -1.84854e-12)
(0.107993 0.0154589 -3.60771e-12)
(0.103171 0.0137781 -5.07275e-12)
(0.098728 0.0125548 -5.90209e-12)
(0.0946053 0.0116534 -6.287e-12)
(0.090756 0.0109739 -6.22874e-12)
(0.0871414 0.0104455 -6.003e-12)
(0.0837303 0.0100191 -5.54247e-12)
(0.0804973 0.00966184 -5.14465e-12)
(0.0774215 0.0093518 -4.64823e-12)
(0.0744856 0.00907486 -4.29259e-12)
(0.0716751 0.00882193 -3.89785e-12)
(0.0689779 0.00858724 -3.62741e-12)
(0.0663835 0.00836712 -3.33741e-12)
(0.0638829 0.00815922 -3.12891e-12)
(0.0614685 0.00796204 -2.90967e-12)
(0.0591333 0.00777458 -2.73591e-12)
(0.0568712 0.00759614 -2.5602e-12)
(0.0546768 0.00742622 -2.40688e-12)
(0.0525453 0.00726442 -2.26081e-12)
(0.0504722 0.00711042 -2.12356e-12)
(0.0484536 0.00696392 -2.0013e-12)
(0.0464858 0.00682467 -1.87956e-12)
(0.0445653 0.0066924 -1.77816e-12)
(0.0426892 0.00656688 -1.67194e-12)
(0.0408545 0.00644787 -1.58903e-12)
(0.0390586 0.00633513 -1.49779e-12)
(0.0372989 0.00622846 -1.43111e-12)
(0.0355732 0.00612763 -1.35396e-12)
(0.0338792 0.00603243 -1.30135e-12)
(0.0322149 0.00594266 -1.23722e-12)
(0.0305784 0.00585813 -1.19691e-12)
(0.0289678 0.00577866 -1.1448e-12)
(0.0273814 0.00570407 -1.11538e-12)
(0.0258176 0.0056342 -1.07441e-12)
(0.0242747 0.00556889 -1.05487e-12)
(0.0227514 0.00550798 -1.02431e-12)
(0.0212461 0.00545135 -1.01389e-12)
(0.0197575 0.00539885 -9.9312e-13)
(0.0182842 0.00535038 -9.91316e-13)
(0.0168251 0.0053058 -9.79766e-13)
(0.0153788 0.00526503 -9.86245e-13)
(0.0139443 0.00522796 -9.8345e-13)
(0.0125203 0.0051945 -9.98251e-13)
(0.0111057 0.00516457 -1.00399e-12)
(0.00969942 0.00513812 -1.02842e-12)
(0.00830041 0.00511509 -1.04296e-12)
(0.00690759 0.00509545 -1.08058e-12)
(0.00551992 0.00507919 -1.10546e-12)
(0.00413635 0.00506634 -1.15471e-12)
(0.00275588 0.00505697 -1.19172e-12)
(0.00137756 0.00505119 -1.24383e-12)
(2.1345e-08 0.00504922 -1.26063e-12)
(-0.00137752 0.00505119 -1.4715e-12)
(-0.00275584 0.00505697 -4.74374e-13)
(-0.00413631 0.00506634 -3.53918e-12)
(-0.00551988 0.00507919 -3.37752e-13)
(0.0719635 0.369712 9.75016e-12)
(0.0865015 0.364715 -3.94272e-12)
(0.101102 0.358524 -2.98176e-11)
(0.115744 0.350941 -3.818e-11)
(0.130372 0.34172 -6.83297e-11)
(0.144865 0.330575 -7.46905e-11)
(0.15899 0.317205 -1.06121e-10)
(0.172346 0.301363 -1.05042e-10)
(0.184302 0.282962 -1.17421e-10)
(0.194055 0.262139 -1.01716e-10)
(0.20095 0.239247 -8.58915e-11)
(0.20476 0.21486 -6.02394e-11)
(0.205316 0.18951 -3.67408e-11)
(0.202647 0.164394 -1.94798e-11)
(0.197488 0.140672 -4.75978e-12)
(0.190822 0.119113 9.76779e-13)
(0.18341 0.100194 8.66215e-12)
(0.175762 0.0841406 8.28056e-12)
(0.168166 0.0708273 1.10987e-11)
(0.160738 0.0599023 8.59848e-12)
(0.153545 0.0510403 7.91137e-12)
(0.146635 0.0439516 4.94493e-12)
(0.140039 0.0383484 2.84496e-12)
(0.133777 0.0339517 5.24644e-13)
(0.12786 0.0305072 -1.13868e-12)
(0.122284 0.0277971 -2.36881e-12)
(0.117035 0.0256436 -3.01332e-12)
(0.112094 0.0239067 -3.38177e-12)
(0.107439 0.02248 -3.28521e-12)
(0.103047 0.0212844 -3.23215e-12)
(0.0988925 0.0202623 -2.85409e-12)
(0.0949553 0.0193723 -2.70788e-12)
(0.0912144 0.0185847 -2.33298e-12)
(0.0876515 0.0178782 -2.22793e-12)
(0.08425 0.0172377 -1.9441e-12)
(0.080995 0.0166519 -1.89143e-12)
(0.0778735 0.0161126 -1.68792e-12)
(0.0748737 0.0156135 -1.6609e-12)
(0.0719854 0.0151498 -1.50655e-12)
(0.0691993 0.0147176 -1.48358e-12)
(0.0665071 0.0143138 -1.35719e-12)
(0.0639016 0.0139359 -1.33009e-12)
(0.0613761 0.0135817 -1.22238e-12)
(0.0589246 0.0132494 -1.19119e-12)
(0.0565417 0.0129373 -1.0992e-12)
(0.0542225 0.0126441 -1.06664e-12)
(0.0519626 0.0123685 -9.89221e-13)
(0.0497577 0.0121095 -9.57796e-13)
(0.0476041 0.0118659 -8.93889e-13)
(0.0454983 0.011637 -8.65251e-13)
(0.0434371 0.0114218 -8.13566e-13)
(0.0414175 0.0112197 -7.88625e-13)
(0.0394367 0.01103 -7.47882e-13)
(0.0374921 0.010852 -7.27177e-13)
(0.0355812 0.0106852 -6.96233e-13)
(0.0337017 0.0105291 -6.80068e-13)
(0.0318514 0.0103831 -6.58038e-13)
(0.0300284 0.0102468 -6.46646e-13)
(0.0282307 0.0101198 -6.32896e-13)
(0.0264564 0.0100018 -6.26429e-13)
(0.0247037 0.00989236 -6.20493e-13)
(0.022971 0.00979121 -6.19021e-13)
(0.0212567 0.00969805 -6.20606e-13)
(0.0195592 0.00961262 -6.24158e-13)
(0.0178771 0.00953468 -6.33068e-13)
(0.0162089 0.00946402 -6.41573e-13)
(0.0145532 0.00940045 -6.57661e-13)
(0.0129086 0.0093438 -6.71018e-13)
(0.0112739 0.00929393 -6.943e-13)
(0.00964775 0.00925073 -7.1237e-13)
(0.00802884 0.00921412 -7.42584e-13)
(0.00641594 0.00918406 -7.64894e-13)
(0.00480781 0.00916054 -7.98616e-13)
(0.00320327 0.00914359 -8.19741e-13)
(0.00160123 0.00913331 -8.55322e-13)
(2.46146e-08 0.00912984 -8.63523e-13)
(-0.00160118 0.00913331 -9.41767e-13)
(-0.00320322 0.00914359 -6.38183e-13)
(-0.00480776 0.00916054 -1.52611e-12)
(-0.00641589 0.00918406 -1.26813e-12)
(0.0644821 0.334009 -4.43659e-12)
(0.0772751 0.329127 4.22576e-12)
(0.0899824 0.323154 -7.69161e-12)
(0.10255 0.315972 -8.57662e-12)
(0.114895 0.307445 -1.7768e-11)
(0.126892 0.297441 -1.8712e-11)
(0.138369 0.285849 -2.73637e-11)
(0.149098 0.272606 -2.63545e-11)
(0.158806 0.257728 -2.99609e-11)
(0.167208 0.241333 -2.58844e-11)
(0.174049 0.223643 -2.26701e-11)
(0.179131 0.204987 -1.71033e-11)
(0.182302 0.185771 -1.06015e-11)
(0.183514 0.166531 -6.94983e-12)
(0.182893 0.14783 -1.49144e-12)
(0.180683 0.130191 -7.19346e-13)
(0.177178 0.114079 2.12059e-12)
(0.172692 0.0998257 8.4484e-13)
(0.167525 0.0875468 1.10662e-12)
(0.161924 0.0771474 -8.79556e-13)
(0.156075 0.0684301 -2.25979e-12)
(0.150128 0.0611742 -4.00928e-12)
(0.144201 0.0551603 -5.56483e-12)
(0.138385 0.0501802 -6.54226e-12)
(0.132744 0.0460449 -7.37784e-12)
(0.127315 0.0425903 -7.57264e-12)
(0.12212 0.0396792 -7.60052e-12)
(0.117166 0.0372004 -7.30201e-12)
(0.11245 0.0350655 -6.86456e-12)
(0.107963 0.0332058 -6.39945e-12)
(0.103693 0.0315684 -5.84505e-12)
(0.0996258 0.0301126 -5.41294e-12)
(0.0957464 0.0288071 -4.92366e-12)
(0.0920405 0.0276277 -4.58579e-12)
(0.0884943 0.0265556 -4.20281e-12)
(0.0850949 0.0255758 -3.94583e-12)
(0.0818304 0.0246765 -3.64886e-12)
(0.0786901 0.0238479 -3.44294e-12)
(0.0756641 0.0230819 -3.20371e-12)
(0.0727434 0.0223721 -3.0278e-12)
(0.06992 0.0217127 -2.828e-12)
(0.0671864 0.0210991 -2.67262e-12)
(0.064536 0.0205271 -2.50333e-12)
(0.0619628 0.0199932 -2.36546e-12)
(0.0594611 0.0194942 -2.2224e-12)
(0.0570259 0.0190276 -2.10123e-12)
(0.0546525 0.0185908 -1.98153e-12)
(0.0523367 0.0181819 -1.87637e-12)
(0.0500745 0.0177988 -1.77745e-12)
(0.0478623 0.0174399 -1.68735e-12)
(0.0456967 0.0171036 -1.60666e-12)
(0.0435746 0.0167886 -1.53047e-12)
(0.0414929 0.0164937 -1.46574e-12)
(0.0394491 0.0162177 -1.40235e-12)
(0.0374405 0.0159595 -1.35171e-12)
(0.0354647 0.0157184 -1.30008e-12)
(0.0335194 0.0154933 -1.26202e-12)
(0.0316026 0.0152836 -1.22135e-12)
(0.0297121 0.0150886 -1.19473e-12)
(0.027846 0.0149075 -1.16435e-12)
(0.0260025 0.0147399 -1.14834e-12)
(0.0241799 0.0145852 -1.12768e-12)
(0.0223764 0.0144429 -1.12173e-12)
(0.0205904 0.0143126 -1.11035e-12)
(0.0188203 0.0141939 -1.11417e-12)
(0.0170648 0.0140864 -1.11183e-12)
(0.0153222 0.0139899 -1.12559e-12)
(0.0135912 0.013904 -1.13229e-12)
(0.0118704 0.0138286 -1.15728e-12)
(0.0101585 0.0137635 -1.17334e-12)
(0.00845408 0.0137084 -1.21247e-12)
(0.0067559 0.0136634 -1.23876e-12)
(0.00506264 0.0136283 -1.28788e-12)
(0.00337309 0.0136032 -1.32499e-12)
(0.00168614 0.013588 -1.36971e-12)
(2.51178e-08 0.013583 -1.3819e-12)
(-0.00168609 0.013588 -1.62075e-12)
(-0.00337304 0.0136032 -4.01604e-13)
(-0.00506259 0.0136283 -4.11234e-12)
(-0.00675585 0.0136634 -5.47359e-14)
(0.058584 0.302354 2.62175e-11)
(0.0700517 0.297784 1.88991e-11)
(0.0813549 0.292259 1.10554e-11)
(0.0924337 0.285711 1.00418e-11)
(0.103209 0.278073 6.85845e-12)
(0.11358 0.269287 6.97459e-12)
(0.123422 0.259316 4.33736e-12)
(0.132591 0.24816 5.09728e-12)
(0.140929 0.235865 3.9298e-12)
(0.148272 0.22254 5.15815e-12)
(0.154469 0.20835 5.98901e-12)
(0.159388 0.193528 7.17309e-12)
(0.162928 0.178363 9.08583e-12)
(0.165037 0.163209 9.3721e-12)
(0.165728 0.148453 1.08086e-11)
(0.16508 0.134469 9.93648e-12)
(0.163237 0.12156 1.00152e-11)
(0.160396 0.109903 8.33246e-12)
(0.156776 0.0995469 7.12431e-12)
(0.152589 0.0904498 5.31452e-12)
(0.14802 0.0825183 3.60321e-12)
(0.143221 0.075636 2.09185e-12)
(0.138315 0.0696777 6.76888e-13)
(0.133396 0.0645182 -2.04245e-13)
(0.128532 0.0600399 -9.2354e-13)
(0.123774 0.0561368 -1.30274e-12)
(0.119151 0.052717 -1.44544e-12)
(0.114683 0.0497026 -1.5291e-12)
(0.110378 0.0470291 -1.36593e-12)
(0.106237 0.0446433 -1.35337e-12)
(0.10226 0.0425019 -1.11128e-12)
(0.0984383 0.0405696 -1.10929e-12)
(0.0947666 0.0388177 -8.96105e-13)
(0.0912361 0.0372224 -9.28754e-13)
(0.0878384 0.0357641 -7.65876e-13)
(0.084565 0.0344266 -8.18537e-13)
(0.0814077 0.0331961 -6.93439e-13)
(0.0783587 0.0320609 -7.47196e-13)
(0.0754105 0.0310114 -6.44806e-13)
(0.0725564 0.0300388 -6.89211e-13)
(0.0697899 0.0291359 -6.0126e-13)
(0.0671051 0.0282963 -6.34039e-13)
(0.0644963 0.0275145 -5.57629e-13)
(0.0619586 0.0267856 -5.80505e-13)
(0.0594871 0.0261053 -5.14959e-13)
(0.0570775 0.0254698 -5.30653e-13)
(0.0547257 0.0248757 -4.75623e-13)
(0.0524279 0.02432 -4.86557e-13)
(0.0501806 0.0238002 -4.41443e-13)
(0.0479805 0.0233136 -4.49422e-13)
(0.0458244 0.0228583 -4.13408e-13)
(0.0437097 0.0224322 -4.19821e-13)
(0.0416334 0.0220335 -3.9209e-13)
(0.0395932 0.0216608 -3.97986e-13)
(0.0375866 0.0213125 -3.77804e-13)
(0.0356114 0.0209874 -3.84041e-13)
(0.0336654 0.0206842 -3.70882e-13)
(0.0317466 0.0204018 -3.78195e-13)
(0.0298532 0.0201394 -3.71668e-13)
(0.0279832 0.019896 -3.8064e-13)
(0.0261349 0.0196708 -3.8048e-13)
(0.0243066 0.019463 -3.91608e-13)
(0.0224968 0.019272 -3.97675e-13)
(0.0207038 0.0190973 -4.1129e-13)
(0.0189262 0.0189382 -4.23501e-13)
(0.0171626 0.0187943 -4.3989e-13)
(0.0154115 0.0186651 -4.58121e-13)
(0.0136716 0.0185504 -4.77393e-13)
(0.0119415 0.0184497 -5.01175e-13)
(0.01022 0.0183628 -5.23065e-13)
(0.0085057 0.0182896 -5.50638e-13)
(0.00679743 0.0182297 -5.73896e-13)
(0.00509393 0.0181832 -5.99746e-13)
(0.00339401 0.0181499 -6.1778e-13)
(0.00169661 0.01813 -6.39631e-13)
(2.37304e-08 0.0181233 -6.44756e-13)
(-0.00169657 0.0181299 -6.91847e-13)
(-0.00339396 0.0181499 -4.76691e-13)
(-0.00509388 0.0181832 -1.08779e-12)
(-0.00679739 0.0182297 -1.06783e-12)
(0.0527223 0.273419 3.57508e-12)
(0.0629337 0.269267 1.30072e-11)
(0.0729396 0.264297 5.25491e-12)
(0.0826813 0.258478 5.42461e-12)
(0.0920882 0.251784 3.73698e-12)
(0.101076 0.244201 3.602e-12)
(0.10955 0.235733 2.36005e-12)
(0.117401 0.226411 2.35689e-12)
(0.124519 0.216301 1.70121e-12)
(0.130792 0.205508 1.77406e-12)
(0.136116 0.194178 1.76822e-12)
(0.140403 0.182495 1.77198e-12)
(0.143591 0.170674 2.04194e-12)
(0.145653 0.158948 1.77882e-12)
(0.146608 0.147542 1.75056e-12)
(0.14652 0.13665 1.17278e-12)
(0.145496 0.126422 5.87077e-13)
(0.143675 0.116954 -1.12463e-13)
(0.141205 0.108293 -1.16029e-12)
(0.138231 0.100439 -1.82943e-12)
(0.134885 0.0933629 -2.88075e-12)
(0.131279 0.0870129 -3.21975e-12)
(0.127508 0.0813265 -3.92082e-12)
(0.123647 0.0762367 -4.02312e-12)
(0.119757 0.0716769 -4.27143e-12)
(0.11588 0.0675845 -4.14889e-12)
(0.112051 0.0639022 -4.06688e-12)
(0.108292 0.0605795 -3.84607e-12)
(0.104617 0.0575719 -3.60842e-12)
(0.101035 0.0548414 -3.38725e-12)
(0.0975522 0.0523548 -3.11815e-12)
(0.0941693 0.0500839 -2.93666e-12)
(0.0908861 0.0480043 -2.69539e-12)
(0.0877006 0.0460953 -2.55797e-12)
(0.0846098 0.0443386 -2.35464e-12)
(0.0816102 0.0427185 -2.24768e-12)
(0.0786978 0.0412215 -2.07588e-12)
(0.0758685 0.0398355 -1.98655e-12)
(0.0731181 0.0385503 -1.83888e-12)
(0.0704425 0.0373565 -1.76002e-12)
(0.0678376 0.0362462 -1.63229e-12)
(0.0652995 0.0352121 -1.56133e-12)
(0.0628244 0.034248 -1.45162e-12)
(0.0604088 0.0333482 -1.38803e-12)
(0.0580491 0.0325078 -1.29508e-12)
(0.0557422 0.0317222 -1.23891e-12)
(0.0534849 0.0309875 -1.1614e-12)
(0.0512744 0.0303 -1.11249e-12)
(0.0491078 0.0296566 -1.04888e-12)
(0.0469825 0.0290543 -1.00696e-12)
(0.0448961 0.0284906 -9.557e-13)
(0.0428461 0.0279629 -9.2038e-13)
(0.0408304 0.0274692 -8.80051e-13)
(0.0388469 0.0270076 -8.50997e-13)
(0.0368934 0.0265762 -8.204e-13)
(0.0349681 0.0261734 -7.97319e-13)
(0.0330691 0.0257979 -7.75487e-13)
(0.0311947 0.0254482 -7.5813e-13)
(0.0293432 0.0251232 -7.44288e-13)
(0.027513 0.0248217 -7.32455e-13)
(0.0257025 0.0245428 -7.26055e-13)
(0.0239103 0.0242855 -7.19598e-13)
(0.0221349 0.0240491 -7.20256e-13)
(0.020375 0.0238328 -7.19053e-13)
(0.0186291 0.0236359 -7.26574e-13)
(0.0168959 0.0234578 -7.30517e-13)
(0.0151743 0.0232981 -7.44847e-13)
(0.0134629 0.0231562 -7.5374e-13)
(0.0117606 0.0230318 -7.75619e-13)
(0.0100661 0.0229245 -7.89534e-13)
(0.00837836 0.0228341 -8.21043e-13)
(0.0066961 0.0227603 -8.40426e-13)
(0.00501825 0.022703 -8.77656e-13)
(0.0033437 0.0226621 -9.03347e-13)
(0.0016715 0.0226376 -9.3352e-13)
(2.22185e-08 0.0226294 -9.39539e-13)
(-0.00167145 0.0226376 -1.13232e-12)
(-0.00334365 0.0226621 -1.2607e-13)
(-0.0050182 0.022703 -3.19708e-12)
(-0.00669606 0.0227603 2.95248e-13)
(0.0464188 0.24745 4.36669e-11)
(0.0553192 0.243826 3.67253e-11)
(0.0639929 0.239525 2.24085e-11)
(0.0723859 0.234543 2.06558e-11)
(0.0804368 0.22888 1.88709e-11)
(0.0880772 0.222549 1.82948e-11)
(0.0952326 0.215573 1.73463e-11)
(0.101825 0.207997 1.69758e-11)
(0.107777 0.199885 1.61669e-11)
(0.113015 0.191324 1.56507e-11)
(0.117477 0.182423 1.48686e-11)
(0.121114 0.173306 1.41666e-11)
(0.123901 0.16411 1.33144e-11)
(0.125837 0.154971 1.24302e-11)
(0.126948 0.146021 1.13857e-11)
(0.127286 0.137376 1.03816e-11)
(0.126925 0.129128 9.15019e-12)
(0.125951 0.121345 8.14916e-12)
(0.124458 0.114064 6.89074e-12)
(0.122538 0.107303 6.01934e-12)
(0.120278 0.101056 4.95429e-12)
(0.117756 0.0953069 4.29477e-12)
(0.115039 0.0900278 3.55245e-12)
(0.112184 0.0851869 3.0956e-12)
(0.109239 0.08075 2.67264e-12)
(0.106242 0.0766828 2.36387e-12)
(0.103222 0.072952 2.17065e-12)
(0.100203 0.0695268 1.9492e-12)
(0.0972025 0.0663782 1.85965e-12)
(0.094233 0.0634804 1.62999e-12)
(0.0913042 0.0608096 1.62771e-12)
(0.0884229 0.0583447 1.43898e-12)
(0.0855935 0.0560666 1.43621e-12)
(0.0828189 0.0539583 1.24822e-12)
(0.0801004 0.0520044 1.25068e-12)
(0.0774386 0.0501913 1.07647e-12)
(0.0748332 0.0485068 1.08292e-12)
(0.0722835 0.0469397 9.27684e-13)
(0.0697882 0.0454804 9.37226e-13)
(0.0673459 0.04412 8.02317e-13)
(0.0649547 0.0428505 8.13296e-13)
(0.062613 0.0416648 6.97489e-13)
(0.0603186 0.0405565 7.08121e-13)
(0.0580697 0.0395198 6.0919e-13)
(0.0558643 0.0385496 6.18136e-13)
(0.0537003 0.0376411 5.33671e-13)
(0.0515758 0.03679 5.40182e-13)
(0.0494888 0.0359926 4.68049e-13)
(0.0474375 0.0352454 4.7186e-13)
(0.0454201 0.0345451 4.10106e-13)
(0.0434347 0.0338889 4.11203e-13)
(0.0414796 0.0332742 3.58152e-13)
(0.0395532 0.0326986 3.56594e-13)
(0.0376538 0.03216 3.10719e-13)
(0.03578 0.0316563 3.06591e-13)
(0.0339301 0.0311858 2.66584e-13)
(0.0321027 0.0307468 2.59972e-13)
(0.0302964 0.0303379 2.24889e-13)
(0.0285098 0.0299576 2.16428e-13)
(0.0267417 0.0296048 1.85439e-13)
(0.0249907 0.0292782 1.744e-13)
(0.0232555 0.0289769 1.46069e-13)
(0.0215351 0.0287 1.31869e-13)
(0.0198281 0.0284466 1.04884e-13)
(0.0181335 0.0282159 8.6845e-14)
(0.0164501 0.0280073 6.06667e-14)
(0.0147768 0.0278201 4.07097e-14)
(0.0131125 0.0276539 1.81215e-14)
(0.0114562 0.0275082 -1.30099e-15)
(0.00980689 0.0273825 -2.07502e-14)
(0.00816345 0.0272767 -3.92594e-14)
(0.00652492 0.0271903 -5.5578e-14)
(0.00489029 0.0271233 -6.8924e-14)
(0.00325859 0.0270754 -7.59783e-14)
(0.00162899 0.0270467 -8.51012e-14)
(2.00665e-08 0.0270372 -8.64016e-14)
(-0.00162895 0.0270467 -6.91805e-14)
(-0.00325855 0.0270754 -2.09064e-13)
(-0.00489025 0.0271233 2.38869e-13)
(-0.00652488 0.0271903 -7.73639e-13)
(0.0399068 0.225218 2.61669e-11)
(0.0474978 0.222154 2.98249e-11)
(0.0548659 0.218543 1.58928e-11)
(0.0619652 0.214393 1.52523e-11)
(0.0687463 0.209717 1.3701e-11)
(0.0751573 0.204537 1.32662e-11)
(0.0811446 0.198881 1.23589e-11)
(0.086655 0.192791 1.1972e-11)
(0.0916383 0.18632 1.10448e-11)
(0.0960499 0.179533 1.05089e-11)
(0.0998544 0.172505 9.45587e-12)
(0.103028 0.16532 8.81715e-12)
(0.105561 0.158064 7.67104e-12)
(0.107459 0.150826 6.99844e-12)
(0.108743 0.143688 5.80616e-12)
(0.109449 0.136722 5.16405e-12)
(0.109622 0.129989 4.00964e-12)
(0.109317 0.123536 3.45842e-12)
(0.108592 0.117395 2.45182e-12)
(0.107506 0.111585 2.03344e-12)
(0.106116 0.106115 1.26255e-12)
(0.104474 0.100983 9.85609e-13)
(0.102628 0.0961812 4.75828e-13)
(0.100619 0.0916984 3.16142e-13)
(0.0984849 0.0875191 3.2345e-14)
(0.0962556 0.0836262 -4.8893e-14)
(0.0939571 0.0800022 -1.74912e-13)
(0.091611 0.0766291 -2.25308e-13)
(0.0892349 0.0734897 -2.66489e-13)
(0.0868432 0.0705671 -3.11576e-13)
(0.0844475 0.0678455 -3.05073e-13)
(0.082057 0.0653098 -3.53141e-13)
(0.0796793 0.0629462 -3.24175e-13)
(0.0773199 0.0607416 -3.67048e-13)
(0.0749833 0.058684 -3.27113e-13)
(0.0726728 0.0567624 -3.67145e-13)
(0.0703909 0.0549666 -3.21869e-13)
(0.0681393 0.0532873 -3.55961e-13)
(0.0659189 0.0517158 -3.09129e-13)
(0.0637305 0.0502445 -3.36699e-13)
(0.0615743 0.048866 -2.91626e-13)
(0.0594501 0.047574 -3.1359e-13)
(0.0573576 0.0463623 -2.72681e-13)
(0.0552964 0.0452256 -2.90265e-13)
(0.0532656 0.0441588 -2.54823e-13)
(0.0512645 0.0431575 -2.69055e-13)
(0.0492922 0.0422174 -2.39542e-13)
(0.0473477 0.0413347 -2.51201e-13)
(0.04543 0.040506 -2.27512e-13)
(0.043538 0.039728 -2.37291e-13)
(0.0416707 0.0389979 -2.19086e-13)
(0.039827 0.038313 -2.27508e-13)
(0.0380058 0.0376708 -2.14309e-13)
(0.0362061 0.0370691 -2.21834e-13)
(0.0344267 0.0365058 -2.13189e-13)
(0.0326666 0.0359792 -2.20186e-13)
(0.0309247 0.0354873 -2.15635e-13)
(0.0292 0.0350287 -2.22402e-13)
(0.0274914 0.034602 -2.2154e-13)
(0.0257981 0.0342057 -2.2832e-13)
(0.0241189 0.0338388 -2.30934e-13)
(0.0224529 0.0335001 -2.38128e-13)
(0.0207991 0.0331886 -2.4455e-13)
(0.0191566 0.0329034 -2.53075e-13)
(0.0175245 0.0326437 -2.63399e-13)
(0.0159018 0.0324088 -2.73035e-13)
(0.0142876 0.032198 -2.869e-13)
(0.0126811 0.0320108 -2.97444e-13)
(0.0110813 0.0318466 -3.15267e-13)
(0.00948739 0.031705 -3.26816e-13)
(0.00789854 0.0315858 -3.50173e-13)
(0.00631385 0.0314885 -3.63123e-13)
(0.00473248 0.031413 -3.89883e-13)
(0.00315362 0.0313591 -4.0611e-13)
(0.00157657 0.0313268 -4.26612e-13)
(1.83871e-08 0.0313161 -4.31457e-13)
(-0.00157653 0.0313268 -5.68806e-13)
(-0.00315359 0.0313591 1.10189e-13)
(-0.00473245 0.031413 -1.96229e-12)
(-0.00631381 0.0314885 6.08436e-13)
(0.0338137 0.206443 4.31797e-11)
(0.0402166 0.2039 3.95502e-11)
(0.0464191 0.200916 2.31957e-11)
(0.0523846 0.197506 2.17458e-11)
(0.0580752 0.193686 2.00667e-11)
(0.063453 0.189478 1.94734e-11)
(0.0684806 0.18491 1.85341e-11)
(0.0731224 0.180018 1.80843e-11)
(0.077346 0.174841 1.70604e-11)
(0.0811241 0.169427 1.64618e-11)
(0.0844359 0.163828 1.5268e-11)
(0.0872686 0.158101 1.45693e-11)
(0.089618 0.152304 1.32959e-11)
(0.0914895 0.146492 1.25718e-11)
(0.092897 0.14072 1.13121e-11)
(0.0938628 0.135036 1.06199e-11)
(0.0944156 0.129483 9.46052e-12)
(0.094589 0.124094 8.84004e-12)
(0.0944192 0.118897 7.84986e-12)
(0.0939438 0.11391 7.32054e-12)
(0.0931999 0.109146 6.53459e-12)
(0.0922231 0.104611 6.09445e-12)
(0.0910465 0.100308 5.50839e-12)
(0.0897007 0.0962349 5.13958e-12)
(0.0882131 0.0923868 4.72046e-12)
(0.0866081 0.0887571 4.40014e-12)
(0.0849073 0.0853376 4.10443e-12)
(0.0831292 0.0821192 3.81346e-12)
(0.0812903 0.0790921 3.60223e-12)
(0.0794043 0.0762464 3.33073e-12)
(0.0774832 0.0735721 3.17662e-12)
(0.0755371 0.0710594 2.922e-12)
(0.0735745 0.0686985 2.80772e-12)
(0.0716026 0.0664803 2.5717e-12)
(0.0696273 0.064396 2.48557e-12)
(0.0676535 0.0624371 2.26936e-12)
(0.0656854 0.0605958 2.20346e-12)
(0.0637262 0.0588647 2.00795e-12)
(0.0617785 0.0572366 1.95637e-12)
(0.0598444 0.0557053 1.78135e-12)
(0.0579256 0.0542645 1.73966e-12)
(0.0560233 0.0529088 1.58414e-12)
(0.0541383 0.0516328 1.54917e-12)
(0.0522713 0.0504317 1.41182e-12)
(0.0504226 0.049301 1.38146e-12)
(0.0485924 0.0482366 1.26081e-12)
(0.0467807 0.0472347 1.2337e-12)
(0.0449873 0.0462917 1.12821e-12)
(0.0432121 0.0454044 1.10348e-12)
(0.0414546 0.0445696 1.01162e-12)
(0.0397144 0.0437847 9.88716e-13)
(0.037991 0.0430471 9.08977e-13)
(0.036284 0.0423544 8.87502e-13)
(0.0345927 0.0417043 8.18455e-13)
(0.0329165 0.041095 7.98083e-13)
(0.0312548 0.0405244 7.38425e-13)
(0.0296069 0.039991 7.18925e-13)
(0.0279722 0.0394931 6.67479e-13)
(0.0263499 0.0390293 6.48664e-13)
(0.0247393 0.0385983 6.04445e-13)
(0.0231399 0.0381988 5.86179e-13)
(0.0215508 0.0378297 5.48344e-13)
(0.0199713 0.0374901 5.30535e-13)
(0.0184009 0.037179 4.98436e-13)
(0.0168387 0.0368955 4.8113e-13)
(0.015284 0.036639 4.5437e-13)
(0.0137362 0.0364087 4.37907e-13)
(0.0121945 0.0362041 4.16422e-13)
(0.0106583 0.0360246 4.01909e-13)
(0.0091269 0.0358699 3.86113e-13)
(0.00759955 0.0357395 3.76306e-13)
(0.00607558 0.0356331 3.67586e-13)
(0.00455432 0.0355506 3.64748e-13)
(0.0030351 0.0354917 3.66927e-13)
(0.00151737 0.0354564 3.67427e-13)
(1.63594e-08 0.0354446 3.69449e-13)
(-0.00151734 0.0354564 4.37568e-13)
(-0.00303507 0.0354917 2.66567e-14)
(-0.00455429 0.0355506 1.29709e-12)
(-0.00607555 0.0356331 -4.1868e-13)
(0.0284987 0.19064 3.76497e-11)
(0.033887 0.188549 3.61743e-11)
(0.0391051 0.186105 2.06569e-11)
(0.0441241 0.18332 1.95915e-11)
(0.0489157 0.180211 1.79323e-11)
(0.0534521 0.176798 1.73734e-11)
(0.0577071 0.173104 1.6348e-11)
(0.0616563 0.169158 1.58742e-11)
(0.0652782 0.164989 1.47786e-11)
(0.0685552 0.160633 1.41798e-11)
(0.0714741 0.156125 1.29591e-11)
(0.0740268 0.151506 1.22963e-11)
(0.0762109 0.146814 1.10468e-11)
(0.0780296 0.142087 1.03874e-11)
(0.0794913 0.137364 9.19583e-12)
(0.0806096 0.132677 8.58246e-12)
(0.0814019 0.128057 7.51512e-12)
(0.0818888 0.123531 6.97191e-12)
(0.0820933 0.119119 6.07024e-12)
(0.0820394 0.11484 5.60561e-12)
(0.0817515 0.110706 4.8834e-12)
(0.0812538 0.106727 4.49291e-12)
(0.0805694 0.102909 3.9395e-12)
(0.0797204 0.0992554 3.61097e-12)
(0.0787273 0.0957668 3.20053e-12)
(0.0776092 0.0924424 2.91992e-12)
(0.0763832 0.0892795 2.62195e-12)
(0.075065 0.0862746 2.37776e-12)
(0.0736686 0.0834229 2.16442e-12)
(0.0722065 0.0807192 1.94925e-12)
(0.0706897 0.0781578 1.79832e-12)
(0.069128 0.0757328 1.60813e-12)
(0.06753 0.073438 1.50273e-12)
(0.0659031 0.0712672 1.33521e-12)
(0.0642538 0.0692144 1.26259e-12)
(0.0625878 0.0672737 1.11592e-12)
(0.0609098 0.0654392 1.06637e-12)
(0.059224 0.0637053 9.38726e-13)
(0.057534 0.0620668 9.04939e-13)
(0.0558426 0.0605184 7.94453e-13)
(0.0541525 0.0590554 7.71074e-13)
(0.0524657 0.0576731 6.75872e-13)
(0.0507839 0.0563673 6.59119e-13)
(0.0491087 0.0551338 5.77446e-13)
(0.047441 0.0539689 5.64784e-13)