/*--------------------------------*- C++ -*----------------------------------*\
| =========                 |                                                 |
| \\      /  F ield         | OpenFOAM: The Open Source CFD Toolbox           |
|  \\    /   O peration     | Version:  2306                                  |
|   \\  /    A nd           | Website:  www.openfoam.com                      |
|    \\/     M anipulation  |                                                 |
\*---------------------------------------------------------------------------*/
FoamFile
{
    version     2.0;
    format      ascii;
    arch        "LSB;label=32;scalar=64";
    class       volScalarField;
    location    "100";
    object      p_rgh;
}
// * * * * * * * * * * * * * * * * * * * * * * * * * * * * * * * * * * * * * //

dimensions      [1 -1 -2 0 0 0 0];

internalField   nonuniform List<scalar> 
14400
(
-0.00538795
-0.00541198
-0.00544046
-0.00547349
-0.00551115
-0.00555355
-0.00560083
-0.00565313
-0.00571063
-0.0057735
-0.00584196
-0.00591624
-0.0059966
-0.00608333
-0.00617674
-0.00627717
-0.006385
-0.00650066
-0.00662461
-0.00675734
-0.00689943
-0.00705149
-0.00721419
-0.0073883
-0.00757463
-0.00777413
-0.00798782
-0.00821684
-0.00846248
-0.00872617
-0.00900955
-0.00931443
-0.00964288
-0.00999727
-0.0103803
-0.010795
-0.011245
-0.0117344
-0.012268
-0.0128512
-0.0134906
-0.0141935
-0.0149686
-0.0158256
-0.0167755
-0.0178304
-0.0190028
-0.0203054
-0.0217496
-0.0233433
-0.0250889
-0.0269829
-0.029016
-0.0311369
-0.033055
-0.0337064
-0.0312611
-0.025122
-0.015377
-0.00520341
-0.00616307
-0.00566261
-0.00551873
-0.00547684
-0.00524489
-0.00495202
-0.00466468
-0.00440001
-0.00416386
-0.00395922
-0.00378716
-0.00364767
-0.00354027
-0.0034644
-0.00341946
-0.00340466
-0.00341948
-0.00346443
-0.00354032
-0.00364773
-0.00505235
-0.00507487
-0.00510157
-0.00513252
-0.0051678
-0.00520753
-0.00525182
-0.00530081
-0.00535468
-0.00541358
-0.00547771
-0.0055473
-0.00562259
-0.00570384
-0.00579135
-0.00588544
-0.00598646
-0.00609481
-0.00621092
-0.00633527
-0.00646837
-0.0066108
-0.0067632
-0.00692626
-0.00710077
-0.00728757
-0.00748762
-0.00770197
-0.0079318
-0.00817842
-0.00844329
-0.00872805
-0.00903452
-0.00936477
-0.00972109
-0.0101061
-0.0105227
-0.0109742
-0.0114642
-0.011997
-0.0125769
-0.0132091
-0.0138989
-0.014652
-0.0154739
-0.01637
-0.0173447
-0.0184005
-0.0195365
-0.0207462
-0.0220253
-0.023391
-0.0247737
-0.0255136
-0.0241012
-0.0199661
-0.0154121
-0.0126197
-0.0112798
-0.0107126
-0.0103858
-0.00893572
-0.00773632
-0.00680927
-0.00606222
-0.00546275
-0.00498134
-0.00459199
-0.00427588
-0.00401999
-0.00381515
-0.00365489
-0.00353466
-0.00345142
-0.00340319
-0.00338764
-0.00340321
-0.00345146
-0.00353471
-0.00365495
-0.00474347
-0.00476434
-0.00478904
-0.00481763
-0.0048502
-0.00488685
-0.00492769
-0.00497284
-0.00502245
-0.00507668
-0.00513569
-0.00519969
-0.00526889
-0.00534353
-0.00542386
-0.00551018
-0.00560279
-0.00570205
-0.00580832
-0.00592203
-0.00604363
-0.00617362
-0.00631256
-0.00646105
-0.00661976
-0.00678943
-0.00697087
-0.007165
-0.00737279
-0.00759538
-0.00783397
-0.00808995
-0.00836484
-0.00866034
-0.00897835
-0.00932097
-0.00969056
-0.0100897
-0.0105214
-0.0109888
-0.0114952
-0.0120446
-0.0126407
-0.0132874
-0.0139883
-0.0147464
-0.0155633
-0.0164385
-0.017368
-0.0183444
-0.0193634
-0.020411
-0.021323
-0.0215684
-0.0204655
-0.0180164
-0.0151136
-0.0124868
-0.0102942
-0.00867693
-0.00758507
-0.00668365
-0.00599707
-0.00546973
-0.00504191
-0.00468351
-0.00437885
-0.00411863
-0.00389703
-0.0037103
-0.0035559
-0.00343204
-0.0033375
-0.00327152
-0.00323371
-0.00322181
-0.00323372
-0.00327155
-0.00333755
-0.0034321
-0.0044063
-0.00442508
-0.00444725
-0.00447287
-0.00450203
-0.0045348
-0.00457128
-0.00461157
-0.00465579
-0.00470407
-0.00475657
-0.00481343
-0.00487484
-0.00494098
-0.00501208
-0.00508836
-0.00517007
-0.00525749
-0.00535093
-0.0054507
-0.00555718
-0.00567075
-0.00579184
-0.00592091
-0.00605848
-0.00620509
-0.00636137
-0.00652796
-0.0067056
-0.00689508
-0.00709728
-0.00731313
-0.00754368
-0.00779007
-0.00805355
-0.00833548
-0.00863734
-0.00896076
-0.00930748
-0.00967938
-0.0100785
-0.0105068
-0.0109666
-0.0114599
-0.0119885
-0.0125537
-0.0131563
-0.0137957
-0.0144695
-0.0151741
-0.0159064
-0.0166592
-0.0173819
-0.0179105
-0.0179526
-0.0172236
-0.0157159
-0.0137927
-0.0119028
-0.0103219
-0.0090758
-0.00800072
-0.00709055
-0.00635151
-0.00575805
-0.0052789
-0.0048885
-0.00456822
-0.00430495
-0.00408959
-0.00391579
-0.00377911
-0.00367654
-0.00360631
-0.00356773
-0.00355631
-0.00356775
-0.00360634
-0.00367658
-0.00377917
-0.00407918
-0.00409571
-0.00411517
-0.00413762
-0.00416313
-0.00419175
-0.00422356
-0.00425864
-0.00429709
-0.00433901
-0.00438451
-0.00443371
-0.00448674
-0.00454376
-0.00460491
-0.00467037
-0.00474034
-0.004815
-0.00489458
-0.00497931
-0.00506946
-0.00516528
-0.00526709
-0.0053752
-0.00548995
-0.00561171
-0.00574088
-0.00587789
-0.0060232
-0.00617729
-0.0063407
-0.00651397
-0.00669773
-0.00689259
-0.00709924
-0.0073184
-0.00755081
-0.00779726
-0.00805857
-0.00833558
-0.00862912
-0.00894002
-0.00926906
-0.00961692
-0.00998411
-0.0103709
-0.0107772
-0.0112024
-0.0116454
-0.0121045
-0.0125785
-0.0130671
-0.0135672
-0.0140491
-0.0144264
-0.0145724
-0.0143829
-0.0138476
-0.0130658
-0.0121801
-0.0112949
-0.01044
-0.00963993
-0.00891289
-0.00826936
-0.00771152
-0.0072347
-0.0068313
-0.00649346
-0.0062142
-0.00598777
-0.00580971
-0.00567677
-0.00558755
-0.0055424
-0.00553091
-0.00554242
-0.00558758
-0.00567682
-0.00580977
-0.00375617
-0.00377032
-0.00378695
-0.00380609
-0.00382779
-0.00385209
-0.00387905
-0.00390873
-0.00394118
-0.0039765
-0.00401474
-0.00405599
-0.00410035
-0.00414791
-0.00419878
-0.00425307
-0.0043109
-0.00437241
-0.00443771
-0.00450697
-0.00458034
-0.00465797
-0.00474004
-0.00482673
-0.00491822
-0.00501472
-0.00511643
-0.00522356
-0.00533632
-0.00545493
-0.00557963
-0.00571063
-0.00584815
-0.00599243
-0.00614365
-0.00630203
-0.00646773
-0.0066409
-0.00682166
-0.00701008
-0.00720616
-0.00740986
-0.00762103
-0.00783941
-0.00806463
-0.00829613
-0.00853319
-0.00877483
-0.00901989
-0.00926699
-0.00951466
-0.00976152
-0.0100063
-0.0102477
-0.0104849
-0.0107156
-0.0109227
-0.0110693
-0.011121
-0.0110692
-0.01093
-0.0107253
-0.0104773
-0.0102048
-0.00992422
-0.00964929
-0.00938987
-0.00915241
-0.00894094
-0.00875791
-0.00860485
-0.00848277
-0.00839258
-0.00833651
-0.00831773
-0.00831797
-0.00831776
-0.00833656
-0.00839265
-0.00848287
-0.00344694
-0.00345875
-0.00347258
-0.00348847
-0.00350643
-0.00352651
-0.00354872
-0.00357312
-0.00359973
-0.00362861
-0.00365979
-0.00369333
-0.00372927
-0.00376768
-0.00380861
-0.00385213
-0.00389829
-0.00394715
-0.0039988
-0.00405328
-0.00411068
-0.00417107
-0.0042345
-0.00430106
-0.00437079
-0.00444377
-0.00452005
-0.00459968
-0.00468269
-0.00476912
-0.00485897
-0.00495224
-0.0050489
-0.0051489
-0.00525216
-0.00535855
-0.00546793
-0.00558008
-0.00569476
-0.00581165
-0.00593038
-0.00605051
-0.00617154
-0.00629288
-0.00641388
-0.00653382
-0.0066519
-0.00676729
-0.00687911
-0.00698645
-0.00708842
-0.00718408
-0.0072724
-0.0073524
-0.00742438
-0.00749163
-0.00755978
-0.0076328
-0.00770944
-0.00778436
-0.00785166
-0.00790674
-0.00794725
-0.00797289
-0.00798527
-0.00798708
-0.00798137
-0.00797111
-0.00795903
-0.00794759
-0.00793893
-0.00793489
-0.00793721
-0.0079489
-0.00797311
-0.00798858
-0.00797315
-0.00794898
-0.00793732
-0.00793503
-0.00315139
-0.00316095
-0.00317211
-0.00318488
-0.00319928
-0.00321533
-0.00323303
-0.00325241
-0.00327348
-0.00329627
-0.00332078
-0.00334705
-0.00337509
-0.00340492
-0.00343656
-0.00347003
-0.00350534
-0.00354251
-0.00358154
-0.00362246
-0.00366525
-0.00370992
-0.00375646
-0.00380486
-0.00385509
-0.00390712
-0.0039609
-0.00401637
-0.00407344
-0.00413203
-0.00419202
-0.00425326
-0.00431558
-0.00437878
-0.00444263
-0.00450685
-0.00457115
-0.00463516
-0.0046985
-0.00476072
-0.00482135
-0.00487987
-0.00493572
-0.00498833
-0.0050371
-0.00508144
-0.00512078
-0.00515463
-0.00518255
-0.00520423
-0.00521955
-0.00522854
-0.00523146
-0.00522875
-0.00522109
-0.00520955
-0.00519569
-0.00518148
-0.0051691
-0.00516045
-0.00515684
-0.00515864
-0.00516551
-0.00517661
-0.00519098
-0.00520773
-0.00522613
-0.00524566
-0.00526602
-0.00528708
-0.00530889
-0.00533154
-0.00535531
-0.00538176
-0.00541245
-0.00542892
-0.00541251
-0.00538187
-0.00535549
-0.00533175
-0.00287226
-0.00287972
-0.0028884
-0.00289829
-0.0029094
-0.00292172
-0.00293527
-0.00295004
-0.00296603
-0.00298325
-0.00300169
-0.00302134
-0.00304221
-0.00306428
-0.00308754
-0.00311199
-0.00313759
-0.00316433
-0.00319218
-0.0032211
-0.00325106
-0.00328201
-0.00331388
-0.00334661
-0.00338011
-0.00341431
-0.00344908
-0.00348431
-0.00351985
-0.00355554
-0.00359121
-0.00362664
-0.00366161
-0.00369587
-0.00372912
-0.00376107
-0.00379136
-0.00381964
-0.00384551
-0.00386854
-0.00388832
-0.00390437
-0.00391626
-0.00392354
-0.00392577
-0.00392259
-0.00391366
-0.00389876
-0.00387775
-0.00385066
-0.00381768
-0.00377917
-0.00373574
-0.00368821
-0.00363764
-0.00358531
-0.00353259
-0.00348086
-0.0034314
-0.0033853
-0.00334349
-0.00330663
-0.0032751
-0.00324907
-0.00322849
-0.00321318
-0.00320283
-0.00319708
-0.00319557
-0.00319795
-0.00320394
-0.00321322
-0.00322567
-0.00324206
-0.00326318
-0.00327491
-0.00326325
-0.0032422
-0.00322587
-0.00321347
-0.0026101
-0.00261567
-0.00262209
-0.00262937
-0.00263751
-0.00264649
-0.0026563
-0.00266694
-0.00267839
-0.00269064
-0.00270367
-0.00271746
-0.00273199
-0.00274723
-0.00276315
-0.0027797
-0.00279686
-0.00281458
-0.00283279
-0.00285144
-0.00287047
-0.00288978
-0.00290931
-0.00292894
-0.00294858
-0.0029681
-0.00298736
-0.00300621
-0.0030245
-0.00304203
-0.00305862
-0.00307404
-0.00308805
-0.00310042
-0.00311085
-0.00311907
-0.00312477
-0.00312762
-0.0031273
-0.00312347
-0.0031158
-0.00310395
-0.00308761
-0.00306649
-0.00304034
-0.00300898
-0.00297227
-0.00293018
-0.00288278
-0.00283027
-0.00277297
-0.00271137
-0.00264609
-0.00257793
-0.00250781
-0.00243677
-0.00236593
-0.00229643
-0.00222935
-0.00216569
-0.00210628
-0.00205178
-0.00200268
-0.00195926
-0.00192164
-0.00188982
-0.00186369
-0.00184304
-0.00182764
-0.00181724
-0.00181158
-0.00181037
-0.00181342
-0.00182117
-0.00183405
-0.00184175
-0.00183413
-0.00182132
-0.00181363
-0.00181063
-0.00236572
-0.0023696
-0.00237403
-0.00237901
-0.00238453
-0.00239057
-0.00239711
-0.00240414
-0.00241163
-0.00241957
-0.00242791
-0.00243664
-0.00244571
-0.0024551
-0.00246474
-0.0024746
-0.00248462
-0.00249474
-0.00250489
-0.00251499
-0.00252498
-0.00253475
-0.0025442
-0.00255324
-0.00256173
-0.00256956
-0.00257658
-0.00258264
-0.00258757
-0.00259121
-0.00259336
-0.00259382
-0.00259238
-0.00258883
-0.00258291
-0.00257441
-0.00256306
-0.00254862
-0.00253085
-0.00250949
-0.00248432
-0.00245512
-0.0024217
-0.0023839
-0.00234162
-0.0022948
-0.00224344
-0.00218763
-0.00212753
-0.00206342
-0.00199566
-0.00192471
-0.00185117
-0.00177571
-0.0016991
-0.00162216
-0.00154578
-0.00147082
-0.00139814
-0.00132854
-0.00126271
-0.00120126
-0.00114466
-0.00109327
-0.00104731
-0.00100692
-0.000972129
-0.000942889
-0.000919102
-0.000900631
-0.000887309
-0.000878934
-0.000875342
-0.000876813
-0.000883593
-0.000888289
-0.000883666
-0.000876957
-0.000875548
-0.000879188
-0.00213921
-0.00214163
-0.00214435
-0.00214734
-0.00215061
-0.00215412
-0.00215786
-0.00216181
-0.00216593
-0.0021702
-0.00217458
-0.00217904
-0.00218354
-0.00218803
-0.00219246
-0.00219677
-0.00220091
-0.0022048
-0.00220839
-0.00221158
-0.00221429
-0.00221644
-0.00221792
-0.00221863
-0.00221845
-0.00221726
-0.00221492
-0.0022113
-0.00220626
-0.00219963
-0.00219125
-0.00218095
-0.00216856
-0.00215389
-0.00213677
-0.00211701
-0.00209441
-0.00206882
-0.00204005
-0.00200794
-0.00197235
-0.00193317
-0.00189028
-0.00184365
-0.00179324
-0.00173909
-0.00168127
-0.00161994
-0.0015553
-0.00148762
-0.00141727
-0.00134467
-0.00127031
-0.00119475
-0.00111861
-0.00104254
-0.000967207
-0.000893302
-0.000821486
-0.000752387
-0.000686578
-0.000624566
-0.000566782
-0.000513572
-0.000465204
-0.000421863
-0.000383667
-0.000350669
-0.000322871
-0.000300236
-0.00028269
-0.000270121
-0.000262428
-0.000259815
-0.000262447
-0.000265061
-0.000262513
-0.000259945
-0.000262615
-0.000270351
-0.00193047
-0.00193166
-0.00193292
-0.00193424
-0.00193561
-0.00193701
-0.0019384
-0.00193978
-0.0019411
-0.00194233
-0.00194345
-0.0019444
-0.00194515
-0.00194565
-0.00194585
-0.00194569
-0.00194511
-0.00194405
-0.00194244
-0.00194019
-0.00193724
-0.00193348
-0.00192884
-0.00192321
-0.00191649
-0.00190856
-0.00189933
-0.00188865
-0.00187642
-0.0018625
-0.00184675
-0.00182904
-0.00180924
-0.00178721
-0.00176281
-0.00173591
-0.00170637
-0.00167409
-0.00163895
-0.00160087
-0.00155976
-0.00151557
-0.00146827
-0.00141787
-0.00136441
-0.00130796
-0.00124864
-0.00118663
-0.00112212
-0.0010554
-0.000986772
-0.000916609
-0.000845323
-0.000773367
-0.000701229
-0.000629422
-0.000558473
-0.00048891
-0.000421251
-0.000355991
-0.000293593
-0.000234477
-0.000179011
-0.000127513
-8.02426e-05
-3.74062e-05
8.42839e-07
3.43987e-05
6.31981e-05
8.72135e-05
0.000106451
0.000120955
0.000130767
0.000135725
0.000135703
0.000134452
0.000135646
0.000135614
0.000130606
0.000120756
-0.00173906
-0.00173922
-0.00173928
-0.00173923
-0.00173904
-0.0017387
-0.00173818
-0.00173746
-0.00173651
-0.0017353
-0.00173378
-0.00173193
-0.00172969
-0.00172703
-0.0017239
-0.00172023
-0.00171598
-0.00171108
-0.00170547
-0.00169908
-0.00169184
-0.00168367
-0.00167448
-0.0016642
-0.00165273
-0.00163998
-0.00162585
-0.00161026
-0.00159309
-0.00157424
-0.00155362
-0.00153111
-0.00150662
-0.00148005
-0.0014513
-0.00142028
-0.00138692
-0.00135113
-0.00131287
-0.00127208
-0.00122874
-0.00118284
-0.0011344
-0.00108345
-0.00103008
-0.000974367
-0.000916459
-0.000856521
-0.000794757
-0.000731408
-0.000666748
-0.000601089
-0.00053477
-0.000468159
-0.000401646
-0.000335635
-0.00027054
-0.000206775
-0.000144748
-8.48531e-05
-2.74607e-05
2.70847e-05
7.84711e-05
0.000126423
0.000170701
0.000211106
0.000247476
0.000279684
0.000307638
0.000331274
0.000350558
0.000365489
0.000376071
0.000382165
0.000383669
0.000383275
0.000383624
0.000382078
0.000375944
0.000365333
-0.00156432
-0.00156365
-0.00156274
-0.00156158
-0.00156015
-0.00155843
-0.00155639
-0.00155401
-0.00155127
-0.00154813
-0.00154456
-0.00154052
-0.00153597
-0.00153088
-0.0015252
-0.00151887
-0.00151185
-0.00150408
-0.00149551
-0.00148608
-0.00147572
-0.00146437
-0.00145195
-0.0014384
-0.00142365
-0.00140761
-0.00139022
-0.00137139
-0.00135105
-0.00132912
-0.00130552
-0.00128018
-0.00125303
-0.001224
-0.00119303
-0.00116007
-0.00112506
-0.00108798
-0.00104879
-0.00100749
-0.000964078
-0.00091858
-0.000871036
-0.000821507
-0.000770079
-0.00071686
-0.000661983
-0.000605609
-0.000547922
-0.000489134
-0.000429482
-0.000369225
-0.000308642
-0.000248034
-0.000187711
-0.000127998
-6.92209e-05
-1.17098e-05
4.4212e-05
9.82302e-05
0.000150045
0.000199374
0.000245958
0.000289561
0.000329973
0.000367013
0.000400524
0.00043038
0.000456476
0.000478736
0.000497103
0.000511553
0.000522066
0.000528523
0.000530838
0.00053096
0.000530805
0.000528457
0.00052197
0.000511436
-0.00140542
-0.0014041
-0.00140243
-0.00140041
-0.00139801
-0.00139521
-0.001392
-0.00138835
-0.00138424
-0.00137963
-0.00137451
-0.00136883
-0.00136256
-0.00135566
-0.0013481
-0.00133984
-0.00133082
-0.001321
-0.00131033
-0.00129877
-0.00128625
-0.00127273
-0.00125816
-0.00124246
-0.00122558
-0.00120748
-0.00118808
-0.00116733
-0.00114517
-0.00112154
-0.0010964
-0.00106968
-0.00104136
-0.00101137
-0.000979691
-0.00094629
-0.000911146
-0.000874247
-0.000835594
-0.000795197
-0.000753081
-0.000709285
-0.000663865
-0.000616891
-0.000568453
-0.000518659
-0.000467635
-0.000415527
-0.0003625
-0.000308737
-0.000254439
-0.000199822
-0.000145118
-9.05696e-05
-3.64303e-05
1.70405e-05
6.95799e-05
0.000120925
0.000170816
0.000219
0.000265233
0.000309285
0.000350941
0.000390001
0.000426285
0.000459633
0.000489904
0.000516978
0.000540755
0.000561152
0.00057811
0.000591588
0.000601557
0.000607917
0.000610593
0.000611009
0.00061057
0.000607873
0.000601494
0.000591512
-0.00126142
-0.0012596
-0.00125736
-0.00125468
-0.00125155
-0.00124796
-0.00124387
-0.00123928
-0.00123417
-0.0012285
-0.00122224
-0.00121539
-0.00120789
-0.00119972
-0.00119085
-0.00118124
-0.00117085
-0.00115965
-0.0011476
-0.00113465
-0.00112076
-0.00110589
-0.00108999
-0.00107302
-0.00105494
-0.0010357
-0.00101526
-0.000993579
-0.000970612
-0.000946322
-0.000920675
-0.000893639
-0.000865186
-0.000835294
-0.000803945
-0.000771131
-0.000736848
-0.000701102
-0.000663908
-0.000625292
-0.00058529
-0.00054395
-0.000501333
-0.000457514
-0.00041258
-0.000366634
-0.00031979
-0.000272181
-0.00022395
-0.000175254
-0.000126263
-7.71595e-05
-2.81339e-05
2.06139e-05
6.8878e-05
0.000116448
0.000163111
0.000208654
0.000252869
0.000295549
0.000336496
0.000375521
0.000412446
0.000447104
0.000479342
0.000509023
0.000536022
0.000560231
0.000581559
0.000599928
0.000615278
0.000627564
0.000636754
0.000642762
0.000645526
0.000646096
0.000645512
0.000642734
0.000636713
0.000627517
-0.00113129
-0.00112911
-0.00112645
-0.00112331
-0.00111966
-0.00111549
-0.0011108
-0.00110555
-0.00109973
-0.00109333
-0.00108631
-0.00107866
-0.00107034
-0.00106134
-0.00105162
-0.00104116
-0.00102993
-0.00101789
-0.00100501
-0.000991259
-0.000976607
-0.00096102
-0.000944463
-0.000926904
-0.000908309
-0.000888649
-0.000867891
-0.000846008
-0.000822973
-0.000798762
-0.000773354
-0.000746731
-0.000718882
-0.000689796
-0.000659471
-0.00062791
-0.000595124
-0.000561128
-0.000525948
-0.000489617
-0.000452178
-0.000413683
-0.000374194
-0.000333783
-0.000292535
-0.000250542
-0.000207909
-0.000164751
-0.000121194
-7.7372e-05
-3.34298e-05
1.04812e-05
5.42018e-05
9.75675e-05
0.000140409
0.000182555
0.000223831
0.000264066
0.000303087
0.000340727
0.000376825
0.000411224
0.000443778
0.000474346
0.000502801
0.000529025
0.000552912
0.000574368
0.00059331
0.000609669
0.000623388
0.000634425
0.000642746
0.00064828
0.000650975
0.000651613
0.000650969
0.000648268
0.00064273
0.000634409
-0.001014
-0.00101157
-0.00100863
-0.00100516
-0.00100117
-0.000996629
-0.000991531
-0.000985861
-0.000979601
-0.000972736
-0.000965247
-0.000957113
-0.000948316
-0.000938833
-0.000928643
-0.000917721
-0.000906045
-0.000893591
-0.000880333
-0.000866247
-0.000851309
-0.000835493
-0.000818776
-0.000801134
-0.000782544
-0.000762986
-0.000742438
-0.000720884
-0.000698308
-0.000674696
-0.000650039
-0.00062433
-0.000597566
-0.00056975
-0.000540887
-0.000510991
-0.000480077
-0.000448171
-0.000415303
-0.00038151
-0.000346836
-0.000311336
-0.000275068
-0.000238102
-0.000200515
-0.000162391
-0.000123823
-8.4913e-05
-4.57683e-05
-6.50484e-06
3.27556e-05
7.18854e-05
0.000110752
0.000149218
0.000187146
0.000224392
0.000260815
0.000296273
0.000330627
0.000363738
0.000395474
0.000425705
0.000454311
0.000481176
0.000506191
0.000529258
0.000550287
0.000569196
0.000585915
0.000600382
0.000612545
0.000622368
0.000629816
0.000634833
0.000637375
0.000638028
0.000637376
0.000634834
0.000629819
0.000622374
-0.000908482
-0.000905898
-0.000902784
-0.000899132
-0.000894933
-0.000890177
-0.000884853
-0.000878949
-0.000872453
-0.00086535
-0.000857625
-0.000849264
-0.00084025
-0.000830567
-0.000820197
-0.000809123
-0.000797327
-0.00078479
-0.000771494
-0.000757421
-0.000742555
-0.000726876
-0.000710369
-0.000693019
-0.000674809
-0.000655728
-0.000635764
-0.000614907
-0.000593151
-0.000570489
-0.000546921
-0.000522448
-0.000497074
-0.000470808
-0.000443664
-0.000415659
-0.000386816
-0.000357161
-0.000326728
-0.000295556
-0.00026369
-0.000231181
-0.000198085
-0.000164467
-0.000130396
-9.59473e-05
-6.12043e-05
-2.62546e-05
8.80831e-06
4.38855e-05
7.88737e-05
0.000113665
0.000148149
0.000182211
0.000215736
0.000248606
0.000280705
0.000311914
0.00034212
0.000371208
0.00039907
0.000425597
0.000450691
0.000474253
0.000496196
0.000516435
0.000534894
0.000551504
0.000566205
0.000578944
0.000589675
0.000598365
0.000604985
0.000609487
0.000611835
0.000612472
0.000611841
0.000609499
0.000605004
0.000598393
-0.000813723
-0.000811061
-0.000807863
-0.000804124
-0.000799836
-0.000794991
-0.000789581
-0.000783596
-0.000777026
-0.000769861
-0.000762089
-0.000753698
-0.000744675
-0.00073501
-0.000724687
-0.000713696
-0.000702021
-0.000689652
-0.000676574
-0.000662775
-0.000648244
-0.000632968
-0.000616939
-0.000600146
-0.000582581
-0.000564237
-0.00054511
-0.000525196
-0.000504494
-0.000483006
-0.000460736
-0.00043769
-0.000413879
-0.000389315
-0.000364016
-0.000338003
-0.000311301
-0.000283939
-0.000255951
-0.000227375
-0.000198255
-0.000168638
-0.000138579
-0.000108133
-7.73652e-05
-4.63423e-05
-1.51365e-05
1.61756e-05
4.7513e-05
7.87913e-05
0.000109923
0.000140816
0.000171377
0.000201512
0.000231124
0.000260115
0.000288387
0.000315845
0.000342391
0.000367934
0.000392382
0.000415646
0.000437643
0.000458293
0.00047752
0.000495256
0.000511436
0.000526003
0.000538903
0.000550093
0.000559534
0.000567196
0.000573053
0.000577066
0.000579206
0.00057981
0.000579215
0.000577084
0.00057308
0.000567234
-0.000728735
-0.000726056
-0.000722846
-0.0007191
-0.000714814
-0.000709982
-0.000704595
-0.000698648
-0.000692133
-0.000685041
-0.000677365
-0.000669095
-0.000660223
-0.000650739
-0.000640635
-0.000629902
-0.00061853
-0.000606511
-0.000593836
-0.000580499
-0.000566491
-0.000551806
-0.000536438
-0.000520384
-0.00050364
-0.000486204
-0.000468076
-0.000449258
-0.000429753
-0.000409567
-0.000388708
-0.000367187
-0.000345017
-0.000322214
-0.000298797
-0.00027479
-0.000250218
-0.000225111
-0.000199502
-0.000173428
-0.00014693
-0.000120052
-9.28428e-05
-6.53552e-05
-3.7645e-05
-9.77214e-06
1.82002e-05
4.62054e-05
7.41736e-05
0.000102033
0.000129707
0.00015712
0.000184193
0.000210845
0.000236996
0.000262563
0.000287467
0.000311626
0.000334961
0.000357394
0.000378849
0.000399253
0.000418537
0.000436633
0.00045348
0.000469018
0.000483195
0.000495961
0.000507272
0.000517091
0.000525384
0.000532126
0.000537295
0.000540858
0.000542792
0.000543354
0.000542804
0.000540883
0.000537333
0.000532178
-0.00065259
-0.00064994
-0.000646773
-0.000643085
-0.000638871
-0.000634127
-0.000628848
-0.00062303
-0.000616666
-0.00060975
-0.000602278
-0.000594242
-0.000585637
-0.000576457
-0.000566696
-0.000556348
-0.000545407
-0.000533868
-0.000521727
-0.00050898
-0.000495622
-0.000481652
-0.000467068
-0.000451869
-0.000436055
-0.00041963
-0.000402595
-0.000384956
-0.00036672
-0.000347896
-0.000328494
-0.000308528
-0.000288013
-0.000266966
-0.000245408
-0.000223362
-0.000200855
-0.000177914
-0.000154573
-0.000130865
-0.000106829
-8.25063e-05
-5.794e-05
-3.31775e-05
-8.26882e-06
1.67334e-05
4.17737e-05
6.67941e-05
9.17345e-05
0.000116533
0.000141124
0.000165444
0.000189425
0.000212999
0.000236099
0.000258656
0.000280602
0.00030187
0.000322393
0.000342106
0.000360946
0.000378853
0.000395768
0.000411635
0.000426402
0.00044002
0.000452444
0.000463634
0.000473552
0.000482166
0.000489448
0.000495377
0.000499932
0.000503088
0.000504826
0.000505343
0.000504841
0.000503118
0.000499976
0.000495435
-0.000584418
-0.000581835
-0.000578752
-0.000575168
-0.000571079
-0.000566481
-0.000561373
-0.00055575
-0.000549608
-0.000542944
-0.000535754
-0.000528034
-0.00051978
-0.000510989
-0.000501657
-0.000491782
-0.00048136
-0.000470389
-0.000458867
-0.000446793
-0.000434167
-0.000420989
-0.00040726
-0.000392982
-0.000378158
-0.000362794
-0.000346895
-0.000330469
-0.000313525
-0.000296073
-0.000278126
-0.000259698
-0.000240806
-0.000221468
-0.000201705
-0.000181539
-0.000160997
-0.000140105
-0.000118894
-9.73962e-05
-7.56463e-05
-5.36819e-05
-3.15425e-05
-9.27027e-06
1.30905e-05
3.54934e-05
5.78898e-05
8.02296e-05
0.00010246
0.000124529
0.00014638
0.000167958
0.000189206
0.000210066
0.000230482
0.000250395
0.000269748
0.000288485
0.00030655
0.000323889
0.000340448
0.000356177
0.000371027
0.000384952
0.000397907
0.000409852
0.000420749
0.000430564
0.000439265
0.000446825
0.000453221
0.000458433
0.000462447
0.000465239
0.000466795
0.000467267
0.000466811
0.000465272
0.000462496
0.0004585
-0.000523415
-0.000520926
-0.000517959
-0.000514513
-0.000510587
-0.000506178
-0.000501284
-0.000495904
-0.000490035
-0.000483674
-0.000476821
-0.000469472
-0.000461626
-0.000453281
-0.000444436
-0.00043509
-0.000425242
-0.000414892
-0.000404041
-0.000392689
-0.000380839
-0.000368492
-0.000355653
-0.000342325
-0.000328514
-0.000314226
-0.000299469
-0.000284253
-0.000268587
-0.000252483
-0.000235955
-0.000219018
-0.000201688
-0.000183984
-0.000165927
-0.000147539
-0.000128843
-0.000109865
-9.06345e-05
-7.11804e-05
-5.15348e-05
-3.17314e-05
-1.1806e-05
8.20402e-06
2.82594e-05
4.83193e-05
6.83412e-05
8.82813e-05
0.000108095
0.000127735
0.000147155
0.000166307
0.000185142
0.000203612
0.000221668
0.000239261
0.000256344
0.000272867
0.000288785
0.000304051
0.000318621
0.000332453
0.000345506
0.000357739
0.000369118
0.000379607
0.000389174
0.000397791
0.000405431
0.000412072
0.000417693
0.000422279
0.000425815
0.000428285
0.000429674
0.000430103
0.000429692
0.00042832
0.000425867
0.000422348
-0.000468847
-0.000466469
-0.000463639
-0.000460356
-0.000456619
-0.000452427
-0.000447779
-0.000442673
-0.000437109
-0.000431087
-0.000424604
-0.000417662
-0.000410258
-0.000402394
-0.000394069
-0.000385285
-0.000376042
-0.000366341
-0.000356185
-0.000345577
-0.00033452
-0.000323018
-0.000311076
-0.000298699
-0.000285895
-0.000272671
-0.000259036
-0.000245001
-0.000230575
-0.000215772
-0.000200606
-0.000185091
-0.000169245
-0.000153085
-0.00013663
-0.000119903
-0.000102925
-8.57215e-05
-6.83175e-05
-5.07406e-05
-3.30199e-05
-1.51857e-05
2.72991e-06
2.06937e-05
3.86709e-05
5.66256e-05
7.45206e-05
9.23178e-05
0.000109978
0.000127461
0.000144727
0.000161734
0.000178442
0.000194807
0.00021079
0.000226348
0.000241441
0.000256028
0.000270069
0.000283527
0.000296363
0.000308542
0.000320029
0.000330791
0.000340797
0.000350019
0.000358429
0.000366003
0.00037272
0.00037856
0.000383505
0.000387542
0.000390661
0.000392845
0.000394084
0.000394472
0.000394102
0.000392881
0.000390715
0.000387615
-0.000420041
-0.000417788
-0.000415109
-0.000412004
-0.000408473
-0.000404515
-0.000400131
-0.000395319
-0.000390081
-0.000384416
-0.000378324
-0.000371806
-0.000364864
-0.000357498
-0.000349709
-0.000341499
-0.000332872
-0.000323829
-0.000314374
-0.00030451
-0.000294244
-0.000283578
-0.00027252
-0.000261077
-0.000249256
-0.000237065
-0.000224514
-0.000211613
-0.000198374
-0.00018481
-0.000170934
-0.000156762
-0.000142309
-0.000127592
-0.000112631
-9.74443e-05
-8.20544e-05
-6.64831e-05
-5.07542e-05
-3.48926e-05
-1.89246e-05
-2.8775e-06
1.32202e-05
2.93387e-05
4.54476e-05
6.15149e-05
7.75084e-05
9.33946e-05
0.000109139
0.000124709
0.000140067
0.000155179
0.000170009
0.000184522
0.000198682
0.000212454
0.000225803
0.000238695
0.000251097
0.000262975
0.000274298
0.000285035
0.000295158
0.000304638
0.00031345
0.000321568
0.000328972
0.000335639
0.000341551
0.000346692
0.000351048
0.000354607
0.000357358
0.000359291
0.000360396
0.000360746
0.000360414
0.000359328
0.000357414
0.00035468
-0.00037639
-0.000374268
-0.000371748
-0.00036883
-0.000365514
-0.0003618
-0.000357689
-0.000353181
-0.000348277
-0.000342978
-0.000337285
-0.000331199
-0.000324723
-0.000317858
-0.000310607
-0.000302972
-0.000294957
-0.000286565
-0.000277801
-0.00026867
-0.000259175
-0.000249325
-0.000239125
-0.000228583
-0.000217706
-0.000206504
-0.000194987
-0.000183165
-0.000171049
-0.000158653
-0.000145989
-0.000133071
-0.000119917
-0.00010654
-9.29605e-05
-7.91952e-05
-6.52643e-05
-5.11883e-05
-3.69888e-05
-2.26885e-05
-8.3109e-06
6.11932e-06
2.05767e-05
3.5035e-05
4.9467e-05
6.38449e-05
7.81401e-05
9.23236e-05
0.000106366
0.000120237
0.000133906
0.000147343
0.000160517
0.000173398
0.000185955
0.000198159
0.000209978
0.000221386
0.000232352
0.000242849
0.000252849
0.000262329
0.000271261
0.000279624
0.000287394
0.000294552
0.000301078
0.000306955
0.000312166
0.000316698
0.00032054
0.00032368
0.000326111
0.000327822
0.000328806
0.000329121
0.000328825
0.000327859
0.000326167
0.000323754
-0.000337344
-0.000335358
-0.000333
-0.000330272
-0.000327175
-0.000323707
-0.000319872
-0.000315669
-0.0003111
-0.000306167
-0.000300872
-0.000295215
-0.000289201
-0.000282831
-0.000276109
-0.000269038
-0.000261621
-0.000253864
-0.000245771
-0.000237347
-0.000228598
-0.000219531
-0.000210152
-0.00020047
-0.000190492
-0.000180228
-0.000169687
-0.00015888
-0.000147818
-0.000136513
-0.000124979
-0.000113228
-0.000101275
-8.9137e-05
-7.68286e-05
-6.43676e-05
-5.17719e-05
-3.90603e-05
-2.62525e-05
-1.33689e-05
-4.30927e-07
1.25395e-05
2.55198e-05
3.84864e-05
5.14154e-05
6.42822e-05
7.70619e-05
8.97289e-05
0.000102257
0.000114621
0.000126795
0.00013875
0.000150463
0.000161905
0.000173052
0.000183876
0.000194353
0.000204458
0.000214166
0.000223454
0.000232299
0.000240678
0.000248571
0.000255958
0.00026282
0.00026914
0.0002749
0.000280087
0.000284687
0.000288688
0.00029208
0.000294854
0.000297004
0.00029852
0.000299398
0.000299681
0.000299416
0.000298557
0.000297059
0.000294927
-0.00030241
-0.00030056
-0.000298365
-0.000295826
-0.000292945
-0.000289723
-0.00028616
-0.000282259
-0.00027802
-0.000273447
-0.00026854
-0.000263304
-0.00025774
-0.000251851
-0.000245642
-0.000239116
-0.000232277
-0.00022513
-0.000217681
-0.000209934
-0.000201896
-0.000193573
-0.000184973
-0.000176104
-0.000166973
-0.00015759
-0.000147964
-0.000138106
-0.000128026
-0.000117736
-0.000107248
-9.65756e-05
-8.57317e-05
-7.47309e-05
-6.35885e-05
-5.232e-05
-4.09422e-05
-2.9472e-05
-1.79273e-05
-6.32669e-06
5.31082e-06
1.69655e-05
2.86172e-05
4.0245e-05
5.18279e-05
6.3344e-05
7.47715e-05
8.6088e-05
9.7271e-05
0.000108298
0.000119145
0.000129791
0.000140211
0.000150385
0.000160288
0.000169899
0.000179195
0.000188157
0.000196761
0.000204989
0.000212821
0.000220238
0.000227221
0.000233755
0.000239823
0.00024541
0.000250501
0.000255086
0.000259152
0.000262688
0.000265687
0.000268141
0.000270045
0.00027139
0.000272172
0.000272426
0.00027219
0.000271426
0.000270099