/*--------------------------------*- C++ -*----------------------------------*\
| =========                 |                                                 |
| \\      /  F ield         | OpenFOAM: The Open Source CFD Toolbox           |
|  \\    /   O peration     | Version:  2306                                  |
|   \\  /    A nd           | Website:  www.openfoam.com                      |
|    \\/     M anipulation  |                                                 |
\*---------------------------------------------------------------------------*/
FoamFile
{
    version     2.0;
    format      ascii;
    arch        "LSB;label=32;scalar=64";
    class       surfaceScalarField;
    location    "100";
    object      phi;
}
// * * * * * * * * * * * * * * * * * * * * * * * * * * * * * * * * * * * * * //

dimensions      [0 3 -1 0 0 0 0];

oriented        oriented;

internalField   nonuniform List<scalar> 
37980
(
-0.0458801
0.00838426
1.87324e-11
-0.0542927
0.00841255
1.88388e-11
-0.0627376
0.00844492
1.36707e-11
-0.071219
0.00848138
6.18483e-12
-0.079741
0.00852197
7.9498e-12
-0.0883077
0.00856676
8.1888e-12
-0.0969235
0.00861581
1.15738e-11
-0.105593
0.00866917
1.12275e-11
-0.11432
0.00872691
1.43351e-11
-0.123109
0.00878906
1.35335e-11
-0.131964
0.00885566
1.66431e-11
-0.140891
0.00892673
1.55445e-11
-0.149893
0.00900225
1.87549e-11
-0.158975
0.0090822
1.74728e-11
-0.168142
0.00916652
2.0871e-11
-0.177397
0.00925514
1.9496e-11
-0.186745
0.00934792
2.31361e-11
-0.19619
0.00944469
2.17261e-11
-0.205735
0.00954521
2.56417e-11
-0.215384
0.0096492
2.42409e-11
-0.22514
0.00975625
2.84648e-11
-0.235006
0.00986585
2.71145e-11
-0.244984
0.00997739
3.16872e-11
-0.255074
0.0100901
3.04206e-11
-0.265277
0.0102029
3.53823e-11
-0.275591
0.0103146
3.42002e-11
-0.286015
0.0104236
3.95667e-11
-0.296543
0.0105282
3.83969e-11
-0.307169
0.0106258
4.41327e-11
-0.317883
0.0107138
4.28115e-11
-0.328671
0.0107886
4.88688e-11
-0.339517
0.010846
4.7251e-11
-0.350398
0.0108812
5.38101e-11
-0.361287
0.0108884
5.21279e-11
-0.372148
0.0108609
6.00602e-11
-0.382939
0.0107916
5.92815e-11
-0.393612
0.010673
7.01647e-11
-0.404111
0.0104985
7.10186e-11
-0.414375
0.0102641
8.477e-11
-0.424346
0.00997117
8.32958e-11
-0.433978
0.00963147
9.20524e-11
-0.443252
0.00927492
7.33068e-11
-0.452213
0.00896086
5.77146e-11
-0.461008
0.0087943
1.28702e-12
-0.469955
0.00894771
-5.2353e-11
-0.479644
0.00968869
-1.35988e-10
-0.491057
0.0114129
-1.89532e-10
-0.505737
0.0146798
-2.11195e-10
-0.52598
0.0202435
-1.49065e-10
-0.55505
0.0290699
3.37887e-11
-0.597381
0.0423304
3.29609e-10
-0.65871
0.0613291
7.60399e-10
-0.745717
0.0870071
1.20752e-09
-0.863688
0.117971
1.57406e-09
-1.01273
0.149042
1.68066e-09
-1.18717
0.174438
1.39394e-09
-1.37516
0.187996
6.84666e-10
-1.59927
0.224106
3.27177e-09
-2.08348
0.484213
1.53843e-08
-3.03277
0.949287
2.18807e-08
-4.49501
1.46224
2.38508e-09
-3.13319
3.36288
3.68792e-08
-2.51613
4.10764
-2.75543e-09
-2.17489
4.38346
-3.87121e-09
-1.93149
4.48131
-5.31828e-09
-1.72145
4.51466
-6.05237e-09
-1.52246
4.52571
-6.98839e-09
-1.32815
4.5304
-6.06946e-09
-1.13766
4.53421
-5.52697e-09
-0.951437
4.53849
-4.22759e-09
-0.769877
4.54314
-3.53856e-09
-0.592925
4.54775
-2.66295e-09
-0.420099
4.55188
-2.31922e-09
-0.250576
4.55518
-1.96575e-09
-0.0832581
4.55739
-1.80485e-09
0.0832604
4.55819
-1.36369e-09
0.250578
4.55739
-2.60616e-09
0.420101
4.55518
-1.83893e-09
0.592926
4.55188
-3.94083e-09
4.54775
-3.29465e-09
-0.132219
0.0325554
2.70727e-12
-0.156484
0.0326781
1.24036e-12
-0.180861
0.0328214
-5.731e-12
-0.205365
0.0329856
-1.06598e-11
-0.230014
0.0331707
-1.13132e-11
-0.254824
0.0333773
-1.01303e-11
-0.279815
0.0336058
-1.00027e-11
-0.305002
0.0338567
-9.34031e-12
-0.330406
0.0341305
-9.77016e-12
-0.356044
0.0344279
-9.41774e-12
-0.381938
0.0347493
-1.01395e-11
-0.408107
0.0350955
-9.96628e-12
-0.434572
0.0354672
-1.08768e-11
-0.461355
0.0358651
-1.0793e-11
-0.488478
0.0362898
-1.18034e-11
-0.515965
0.0367422
-1.17491e-11
-0.54384
0.037223
-1.2806e-11
-0.572128
0.037733
-1.27536e-11
-0.600856
0.0382729
-1.38205e-11
-0.630051
0.0388437
-1.37505e-11
-0.65974
0.0394459
-1.47865e-11
-0.689955
0.0400804
-1.46708e-11
-0.720725
0.0407478
-1.56205e-11
-0.752084
0.0414487
-1.54205e-11
-0.784065
0.0421836
-1.62194e-11
-0.816703
0.0429528
-1.59006e-11
-0.850036
0.0437565
-1.65023e-11
-0.884102
0.0445945
-1.60677e-11
-0.918943
0.0454668
-1.64843e-11
-0.954602
0.0463728
-1.59964e-11
-0.991125
0.0473117
-1.62777e-11
-1.02856
0.0482828
-1.57372e-11
-1.06697
0.0492854
-1.5711e-11
-1.1064
0.050319
-1.4596e-11
-1.14692
0.0513847
-1.32228e-11
-1.18861
0.0524856
-9.80475e-12
-1.23157
0.0536295
-4.75138e-12
-1.2759
0.0548318
3.38781e-12
-1.32176
0.0561214
1.35891e-11
-1.36934
0.0575489
2.47588e-11
-1.41891
0.0591999
3.30744e-11
-1.47085
0.061214
3.21413e-11
-1.5257
0.0638124
1.45008e-11
-1.58424
0.0673348
-2.75902e-11
-1.64758
0.072287
-1.00399e-10
-1.71729
0.079398
-1.92424e-10
-1.79556
0.0896819
-3.02463e-10
-1.88537
0.104494
-3.69222e-10
-1.99069
0.125566
-3.93716e-10
-2.11662
0.154997
-2.58395e-10
-2.26945
0.195159
-1.26694e-12
-2.45654
0.24842
4.48742e-10
-2.68616
0.316629
9.59766e-10
-2.96864
0.400448
1.73669e-09
-3.31937
0.499771
3.41711e-09
-3.76292
0.617988
6.09664e-09
-4.34478
0.769854
7.81897e-09
-5.11945
0.998782
1.13086e-08
-6.0133
1.37806
1.52216e-08
-6.91568
1.85166
2.5693e-09
-7.76527
2.31184
-6.27475e-09
-7.24886
2.84648
-1.87249e-08
-6.40318
3.26197
-1.57739e-08
-5.55875
3.53902
-1.40084e-08
-4.79877
3.72134
-1.20998e-08
-4.12975
3.84564
-9.43096e-09
-3.53882
3.93478
-7.67001e-09
-3.01027
4.00185
-5.30093e-09
-2.53024
4.05417
-3.05519e-09
-2.08753
4.09578
-1.41146e-09
-1.67337
4.12898
-8.31458e-11
-1.28076
4.15514
6.98715e-10
-0.903967
4.17509
1.22603e-09
-0.538089
4.1893
1.46364e-09
-0.178649
4.19795
1.58943e-09
0.178649
4.20089
1.93777e-09
0.538089
4.19795
1.5343e-09
0.903967
4.1893
1.65646e-09
1.28076
4.17509
9.44448e-10
4.15514
3.79522e-10
-0.191608
0.0675874
-5.24224e-12
-0.226783
0.067853
-1.01374e-11
-0.262127
0.0681657
-1.26915e-11
-0.297668
0.0685261
-1.89703e-11
-0.333432
0.0689349
-1.83386e-11
-0.369447
0.0693931
-1.61081e-11
-0.405743
0.0699018
-1.50711e-11
-0.442349
0.0704623
-1.4039e-11
-0.479295
0.0710761
-1.41431e-11
-0.516612
0.0717448
-1.37687e-11
-0.554333
0.0724703
-1.43842e-11
-0.592491
0.0732543
-1.43359e-11
-0.631123
0.0740991
-1.52556e-11
-0.670265
0.0750069
-1.53955e-11
-0.709955
0.0759802
-1.65142e-11
-0.750235
0.0770216
-1.67786e-11
-0.791146
0.078134
-1.80507e-11
-0.832733
0.0793205
-1.84205e-11
-0.875045
0.0805845
-1.98272e-11
-0.918131
0.0819295
-2.03e-11
-0.962044
0.0833594
-2.18264e-11
-1.00684
0.0848785
-2.24003e-11
-1.05259
0.0864912
-2.4028e-11
-1.09934
0.0882025
-2.47035e-11
-1.14717
0.0900176
-2.64194e-11
-1.19616
0.0919424
-2.72188e-11
-1.24639
0.0939831
-2.90486e-11
-1.29794
0.0961469
-3.00588e-11
-1.35092
0.0984416
-3.2116e-11
-1.40542
0.100876
-3.35217e-11
-1.46157
0.10346
-3.60033e-11
-1.51949
0.106206
-3.79812e-11
-1.57933
0.109128
-4.09144e-11
-1.64126
0.112245
-4.31532e-11
-1.70545
0.115578
-4.56934e-11
-1.77212
0.119157
-4.65675e-11
-1.84152
0.123024
-4.63262e-11
-1.91392
0.127233
-4.30337e-11
-1.98966
0.131866
-3.77236e-11
-2.06915
0.137036
-3.05778e-11
-2.15286
0.14291
-2.51901e-11
-2.24138
0.149732
-2.71309e-11
-2.33542
0.157852
-4.32279e-11
-2.43586
0.167774
-8.27317e-11
-2.54378
0.180206
-1.50121e-10
-2.6605
0.196124
-2.42514e-10
-2.78765
0.21683
-3.52911e-10
-2.92716
0.244006
-4.41284e-10
-3.08133
0.279734
-4.92911e-10
-3.25279
0.326456
-4.24489e-10
-3.44448
0.386851
-2.42941e-10
-3.65969
0.463631
1.06537e-10
-3.90249
0.559427
5.36009e-10
-4.17927
0.677225
1.13478e-09
-4.50106
0.821561
2.04221e-09
-4.88124
0.998172
3.36665e-09
-5.32351
1.21212
4.94325e-09
-5.78956
1.46483
6.73782e-09
-6.16072
1.74923
7.47858e-09
-6.35279
2.04373
5.69979e-09
-6.3645
2.32355
2.45621e-09
-6.1109
2.59287
-8.23735e-10
-5.68348
2.83455
-3.67395e-09
-5.18216
3.0377
-5.46221e-09
-4.66361
3.20278
-6.05253e-09
-4.15328
3.33531
-5.7959e-09
-3.66021
3.4417
-5.26218e-09
-3.18583
3.52747
-3.78229e-09
-2.72852
3.59686
-2.66643e-09
-2.2857
3.65296
-1.65851e-09
-1.8547
3.69799
-9.33165e-10
-1.43307
3.7335
-4.28331e-10
-1.01854
3.76056
-1.64189e-10
-0.609072
3.77983
-3.25392e-11
-0.202673
3.79155
-1.68862e-11
0.202673
3.79554
1.51773e-10
0.609072
3.79155
-4.76476e-11
1.01855
3.77983
5.31792e-11
1.43307
3.76056
-4.53958e-10
3.7335
-7.04822e-10
-0.22271
0.108306
2.25268e-11
-0.263596
0.108739
2.33027e-11
-0.30468
0.109251
1.49846e-11
-0.345997
0.109842
1.19005e-11
-0.387577
0.110516
1.16938e-11
-0.429456
0.111272
1.28905e-11
-0.471668
0.112113
1.33026e-11
-0.514248
0.113042
1.41892e-11
-0.557234
0.114062
1.4431e-11
-0.600663
0.115174
1.53322e-11
-0.644575
0.116383
1.56087e-11
-0.689013
0.117692
1.6579e-11
-0.734018
0.119105
1.69122e-11
-0.779637
0.120626
1.79719e-11
-0.825917
0.12226
1.83986e-11
-0.872908
0.124013
1.95741e-11
-0.920665
0.12589
2.01336e-11
-0.969242
0.127897
2.14498e-11
-1.0187
0.130042
2.21871e-11
-1.0691
0.132332
2.36756e-11
-1.12052
0.134774
2.46497e-11
-1.17302
0.137379
2.63549e-11
-1.22668
0.140156
2.76426e-11
-1.2816
0.143116
2.96205e-11
-1.33785
0.146272
3.131e-11
-1.39554
0.149636
3.36137e-11
-1.45479
0.153226
3.57772e-11
-1.5157
0.157057
3.84211e-11
-1.5784
0.161148
4.10717e-11
-1.64305
0.165523
4.39987e-11
-1.7098
0.170207
4.7085e-11
-1.77882
0.175228
5.02474e-11
-1.85031
0.180622
5.38628e-11
-1.9245
0.18643
5.76444e-11
-2.00162
0.192701
6.26727e-11
-2.08196
0.199496
6.87065e-11
-2.16583
0.206891
7.7606e-11
-2.25358
0.21498
8.89884e-11
-2.3456
0.223887
1.04838e-10
-2.44233
0.233774
1.22932e-10
-2.54428
0.244854
1.43633e-10
-2.65196
0.257416
1.5969e-10
-2.76596
0.271847
1.68825e-10
-2.88686
0.288671
1.585e-10
-3.01523
0.308585
1.27577e-10
-3.15162
0.332509
6.8114e-11
-3.29642
0.36163
-1.23878e-11
-3.44985
0.397437
-9.93449e-11
-3.61185
0.441736
-1.77379e-10
-3.78201
0.496619
-2.02925e-10
-3.95955
0.56439
-1.65475e-10
-4.14337
0.64745
-2.39116e-11
-4.33214
0.748199
1.94427e-10
-4.52396
0.869038
4.92156e-10
-4.71439
1.01199
9.28096e-10
-4.89346
1.17725
1.50608e-09
-5.04392
1.36258
2.23007e-09
-5.14282
1.56373
2.76718e-09
-5.16791
1.77432
3.04249e-09
-5.11017
1.98599
2.82497e-09
-4.97708
2.19047
2.5853e-09
-4.76754
2.38333
1.88864e-09
-4.49332
2.56033
1.25456e-09
-4.17412
2.7185
4.27793e-10
-3.82787
2.85654
1.10507e-11
-3.46738
2.97482
-3.81624e-10
-3.10057
3.07489
-3.80612e-10
-2.73186
3.15877
-4.16227e-10
-2.36349
3.22849
-2.17642e-10
-1.99642
3.28589
-1.4061e-10
-1.63092
3.33248
1.17172e-12
-1.26689
3.36947
2.6232e-11
-0.90407
3.39774
6.63197e-11
-0.542108
3.41787
4.92346e-11
-0.180648
3.43009
3.78597e-11
0.18065
3.43424
8.60229e-11
0.54211
3.43009
1.30139e-10
0.904073
3.41787
1.30362e-10
1.26689
3.39774
2.364e-10
3.36947
3.07443e-11
-0.234503
0.151176
-4.24859e-12
-0.277546
0.151782
-1.02984e-11
-0.320796
0.1525
-1.11853e-11
-0.364285
0.153332
-1.81745e-11
-0.408049
0.15428
-1.71557e-11
-0.452123
0.155346
-1.46001e-11
-0.496543
0.156533
-1.34921e-11
-0.541346
0.157846
-1.25192e-11
-0.586571
0.159287
-1.27686e-11
-0.632258
0.160861
-1.24869e-11
-0.678449
0.162573
-1.32043e-11
-0.725186
0.164429
-1.31845e-11
-0.772516
0.166434
-1.4152e-11
-0.820486
0.168595
-1.42849e-11
-0.869145
0.17092
-1.54306e-11
-0.918547
0.173415
-1.56831e-11
-0.968748
0.17609
-1.69814e-11
-1.01981
0.178955
-1.73493e-11
-1.07178
0.18202
-1.87898e-11
-1.12475
0.185296
-1.92778e-11
-1.17877
0.188797
-2.08501e-11
-1.23393
0.192536
-2.14624e-11
-1.2903
0.19653
-2.3152e-11
-1.34798
0.200795
-2.38923e-11
-1.40706
0.205352
-2.56866e-11
-1.46764
0.210221
-2.65711e-11
-1.52984
0.215427
-2.84808e-11
-1.59379
0.220997
-2.95678e-11
-1.6596
0.226962
-3.16658e-11
-1.72743
0.233357
-3.30901e-11
-1.79745
0.240221
-3.55325e-11
-1.86982
0.2476
-3.74701e-11
-1.94474
0.255546
-4.03675e-11
-2.02243
0.264121
-4.27518e-11
-2.10313
0.273396
-4.57081e-11
-2.18709
0.283456
-4.76097e-11
-2.2746
0.2944
-4.90537e-11
-2.36597
0.306351
-4.83256e-11
-2.46154
0.319456
-4.58734e-11
-2.56166
0.333896
-4.10163e-11
-2.6667
0.349898
-3.51661e-11
-2.77703
0.367745
-3.10591e-11
-2.89298
0.387796
-3.19247e-11
-3.01482
0.410506
-4.48687e-11
-3.14268
0.436451
-7.28606e-11
-3.27653
0.466353
-1.22005e-10
-3.416
0.501105
-1.89986e-10
-3.56035
0.541789
-2.70653e-10
-3.7083
0.58968
-3.55481e-10
-3.85791
0.646227
-4.19627e-10
-4.00652
0.713002
-4.54951e-10
-4.1507
0.791631
-4.29104e-10
-4.28619
0.883684
-3.42462e-10
-4.40765
0.990498
-1.87982e-10
-4.50836
1.1127
2.14445e-11
-4.58063
1.24952
2.43991e-10
-4.61669
1.39864
5.07613e-10
-4.60951
1.55654
7.57229e-10
-4.55425
1.71906
1.01588e-09
-4.44997
1.88171
1.12229e-09
-4.29974
2.04024
1.13944e-09
-4.10767
2.19126
9.59556e-10
-3.87946
2.33212
7.61283e-10
-3.62192
2.46096
4.69422e-10
-3.34209
2.57671
2.70258e-10
-3.04629
2.67902
6.04144e-11
-2.73959
2.76819
-3.10176e-11
-2.42571
2.84489
-1.27126e-10
-2.10727
2.91005
-1.39646e-10
-1.786
2.96461
-1.77415e-10
-1.46298
3.00947
-1.74829e-10
-1.13888
3.04537
-1.99628e-10
-0.814056
3.07292
-2.05853e-10
-0.488704
3.09252
-2.24236e-10
-0.162957
3.10434
-2.36661e-10
0.16296
3.10833
-2.32869e-10
0.488707
3.10434
-1.79154e-10
0.814059
3.09252
-2.60264e-10
1.13888
3.07292
-1.65506e-10
3.04537
-3.00502e-10
-0.235928
0.194297
2.86339e-11
-0.279216
0.195071
3.00678e-11
-0.322704
0.195988
2.18534e-11
-0.366423
0.197051
1.94013e-11
-0.410408
0.198264
1.91598e-11
-0.45469
0.199628
2.01028e-11
-0.499307
0.20115
2.04017e-11
-0.544292
0.202831
2.11116e-11
-0.589685
0.204679
2.14002e-11
-0.635522
0.206698
2.22651e-11
-0.681844
0.208895
2.2751e-11
-0.728691
0.211277
2.38021e-11
-0.776108
0.213851
2.44619e-11
-0.82414
0.216627
2.56683e-11
-0.872832
0.219613
2.64981e-11
-0.922237
0.222819
2.78555e-11
-0.972404
0.226258
2.88783e-11
-1.02339
0.229942
3.04016e-11
-1.07526
0.233884
3.1661e-11
-1.12806
0.238099
3.33805e-11
-1.18187
0.242605
3.49403e-11
-1.23675
0.24742
3.69028e-11
-1.29279
0.252564
3.88464e-11
-1.35005
0.25806
4.11128e-11
-1.40863
0.263933
4.35416e-11
-1.46862
0.270211
4.61822e-11
-1.53012
0.276924
4.92027e-11
-1.59323
0.284109
5.22771e-11
-1.65807
0.291804
5.59735e-11
-1.72477
0.300052
5.95027e-11
-1.79345
0.308904
6.39125e-11
-1.86427
0.318415
6.78836e-11
-1.93737
0.32865
7.30558e-11
-2.01293
0.339681
7.75803e-11
-2.09112
0.351591
8.38617e-11
-2.17215
0.364478
8.95923e-11
-2.2562
0.378451
9.81259e-11
-2.34349
0.393641
1.06645e-10
-2.43423
0.410198
1.19416e-10
-2.52863
0.428301
1.32451e-10
-2.62689
0.44816
1.50391e-10
-2.72918
0.470027
1.66508e-10
-2.83558
0.494201
1.8503e-10
-2.94612
0.521045
1.96345e-10
-3.06066
0.550989
2.04024e-10
-3.17885
0.584548
1.96923e-10
-3.30008
0.62233
1.81649e-10
-3.42333
0.665039
1.51273e-10
-3.54712
0.713472
1.26102e-10
-3.66939
0.7685
8.13538e-11
-3.78742
0.83103
5.44622e-11
-3.89774
0.901951
4.56874e-11
-3.99611
0.982054
5.91949e-11
-4.07752
1.07191
9.96102e-11
-4.13649
1.17167
1.64746e-10
-4.16781
1.28084
2.40534e-10
-4.16726
1.39809
3.31372e-10
-4.13205
1.52133
4.11311e-10
-4.06096
1.64797
5.00013e-10
-3.95442
1.77517
5.42401e-10
-3.81438
1.9002
5.67786e-10
-3.64377
2.02065
5.25676e-10
-3.44619
2.13454
4.7367e-10
-3.22562
2.24038
4.22019e-10
-2.98608
2.33717
3.24943e-10
-2.73139
2.42434
2.50019e-10
-2.46496
2.50175
2.0779e-10
-2.18961
2.56954
1.63791e-10
-1.90761
2.62805
1.45854e-10
-1.62071
2.67772
1.23023e-10
-1.33023
2.71899
1.15172e-10
-1.03715
2.75229
1.01208e-10
-0.742174
2.77795
9.58373e-11
-0.445872
2.79621
9.14982e-11
-0.148725
2.80719
9.98493e-11
0.148728
2.81087
1.48181e-10
0.445875
2.80719
8.66929e-11
0.742177
2.79621
1.66285e-10
1.03715
2.77795
9.09687e-11
2.75229
1.11629e-10
-0.232385
0.236757
-9.23839e-12
-0.274999
0.237684
-1.42563e-11
-0.317796
0.238785
-1.34384e-11
-0.360806
0.240061
-1.82392e-11
-0.404059
0.241517
-1.71065e-11
-0.447586
0.243156
-1.50161e-11
-0.491419
0.244982
-1.42226e-11
-0.53559
0.247002
-1.35764e-11
-0.580133
0.249222
-1.39587e-11
-0.625082
0.251647
-1.39115e-11
-0.670472
0.254286
-1.46812e-11
-0.716342
0.257146
-1.48611e-11
-0.762728
0.260238
-1.58384e-11
-0.809672
0.26357
-1.61696e-11
-0.857213
0.267154
-1.73068e-11
-0.905396
0.271002
-1.77738e-11
-0.954266
0.275128
-1.90535e-11
-1.00387
0.279546
-1.96573e-11
-1.05426
0.284272
-2.10677e-11
-1.10548
0.289323
-2.18124e-11
-1.1576
0.294721
-2.33394e-11
-1.21066
0.300484
-2.42277e-11
-1.26474
0.306638
-2.58518e-11
-1.31988
0.313209
-2.68842e-11
-1.37617
0.320224
-2.8581e-11
-1.43368
0.327716
-2.97591e-11
-1.49248
0.33572
-3.15089e-11
-1.55264
0.344274
-3.28523e-11
-1.61426
0.353423
-3.46609e-11
-1.67742
0.363214
-3.62251e-11
-1.74222
0.373701
-3.81465e-11
-1.80875
0.384945
-4.00432e-11
-1.87711
0.397013
-4.21792e-11
-1.94741
0.40998
-4.45278e-11
-2.01975
0.423932
-4.68915e-11
-2.09424
0.438964
-4.95594e-11
-2.17097
0.455185
-5.17512e-11
-2.25005
0.472717
-5.40815e-11
-2.33155
0.491698
-5.5157e-11
-2.41554
0.512287
-5.61749e-11
-2.50204
0.534664
-5.54019e-11
-2.59105
0.559032
-5.53517e-11
-2.68247
0.585627
-5.45496e-11
-2.77614
0.614715
-5.71377e-11
-2.87175
0.646601
-6.20302e-11
-2.96883
0.681629
-7.47256e-11
-3.06669
0.720186
-9.3277e-11
-3.16435
0.762699
-1.21484e-10
-3.2605
0.809626
-1.58593e-10
-3.35345
0.861444
-1.81912e-10
-3.44104
0.918621
-2.39084e-10
-3.52067
0.98158
-2.81051e-10
-3.58926
1.05065
-3.05648e-10
-3.64334
1.12599
-3.20414e-10
-3.67919
1.20752
-3.28418e-10
-3.69319
1.29484
-3.24769e-10
-3.68225
1.38715
-3.0783e-10
-3.64423
1.48331
-2.89321e-10
-3.57807
1.58181
-2.58508e-10
-3.4839
1.681
-2.31215e-10
-3.36282
1.77912
-2.16303e-10
-3.21672
1.87455
-2.18798e-10
-3.04801
1.96583
-2.16216e-10
-2.85941
2.05178
-2.30044e-10
-2.65373
2.13149
-2.32451e-10
-2.43373
2.20434
-2.44122e-10
-2.20197
2.26999
-2.43095e-10
-1.96071
2.32828
-2.47263e-10
-1.7119
2.37925
-2.41501e-10
-1.45718
2.42299
-2.40362e-10
-1.19788
2.45969
-2.33737e-10
-0.935092
2.4895
-2.3142e-10
-0.66973
2.51259
-2.28655e-10
-0.402567
2.52905
-2.31074e-10
-0.134312
2.53894
-2.36807e-10
0.134315
2.54225
-2.3451e-10
0.402569
2.53894
-2.36637e-10
0.669733
2.52905
-3.24705e-10
0.935094
2.51259
-3.56999e-10
2.4895
-4.93186e-10
-0.226411
0.278107
2.03102e-11
-0.267898
0.279171
2.32524e-11
-0.309546
0.280433
1.71541e-11
-0.351382
0.281897
1.76563e-11
-0.393433
0.283567
1.742e-11
-0.435725
0.285448
1.76794e-11
-0.478285
0.287543
1.75527e-11
-0.521143
0.28986
1.788e-11
-0.564326
0.292405
1.80267e-11
-0.607863
0.295185
1.86132e-11
-0.651786
0.298209
1.90136e-11
-0.696125
0.301485
1.97799e-11
-0.740911
0.305024
2.03542e-11
-0.786178
0.308837
2.12329e-11
-0.831959
0.312936
2.19508e-11
-0.87829
0.317333
2.29167e-11
-0.925207
0.322045
2.37866e-11
-0.972747
0.327086
2.48423e-11
-1.02095
0.332473
2.58983e-11
-1.06985
0.338227
2.70632e-11
-1.1195
0.344367
2.83549e-11
-1.16993
0.350917
2.96545e-11
-1.22119
0.357901
3.12429e-11
-1.27333
0.365347
3.27122e-11
-1.32639
0.373285
3.46736e-11
-1.38043
0.381748
3.63562e-11
-1.43548
0.390771
3.87672e-11
-1.4916
0.400395
4.06508e-11
-1.54884
0.410664
4.35819e-11
-1.60725
0.421625
4.5804e-11
-1.66688
0.433332
4.94356e-11
-1.72778
0.445843
5.20753e-11
-1.78999
0.459223
5.63494e-11
-1.85355
0.473543
5.9046e-11
-1.9185
0.488881
6.38729e-11
-1.98486
0.505326
6.69044e-11
-2.05265
0.522972
7.26701e-11
-2.12186
0.541926
7.63349e-11
-2.19247
0.562305
8.35653e-11
-2.26442
0.584237
8.8471e-11
-2.33762
0.607865
9.77904e-11
-2.41193
0.633345
1.0374e-10
-2.48715
0.660848
1.21777e-10
-2.563
0.69056
1.2478e-10
-2.63908
0.722684
1.36467e-10
-2.71489
0.757438
1.40634e-10
-2.78975
0.795052
1.47646e-10
-2.86282
0.835767
1.45957e-10
-2.93302
0.879825
1.45555e-10
-2.99904
0.927459
1.36408e-10
-3.05929
0.978879
1.30155e-10
-3.11196
1.03425
1.183e-10
-3.15496
1.09365
1.10519e-10
-3.18604
1.15707
1.00253e-10
-3.20286
1.22434
9.68651e-11
-3.20315
1.29512
9.20493e-11
-3.18489
1.36889
9.49345e-11
-3.1465
1.44492
9.42441e-11
-3.08699
1.52231
1.00561e-10
-3.00605
1.60005
9.95602e-11
-2.90401
1.67708
1.0459e-10
-2.7818
1.75234
1.00631e-10
-2.64082
1.82485
1.02549e-10
-2.48277
1.89373
9.64636e-11
-2.30955
1.95827
9.68446e-11
-2.12314
2.01793
9.15481e-11
-1.92544
2.07229
9.27301e-11
-1.71826
2.1211
9.03074e-11
-1.50324
2.16422
9.35877e-11
-1.28182
2.20157
9.48923e-11
-1.05528
2.23315
1.00772e-10
-0.824751
2.25897
1.04815e-10
-0.591214
2.27905
1.10227e-10
-0.355568
2.29341
1.18003e-10
-0.118663
2.30203
1.37454e-10
0.118665
2.30492
2.21366e-10
0.35557
2.30203
4.64106e-11
0.591216
2.29341
1.28566e-10
0.824753
2.27905
-9.23209e-11
2.25897
-8.66929e-11
-0.219048
0.318091
-1.62048e-11
-0.259148
0.319271
-2.01206e-11
-0.299386
0.320671
-1.69568e-11
-0.339783
0.322294
-1.94269e-11
-0.380361
0.324146
-1.85448e-11
-0.421143
0.32623
-1.72242e-11
-0.462151
0.328551
-1.68329e-11
-0.503409
0.331118
-1.65294e-11
-0.54494
0.333935
-1.6986e-11
-0.586766
0.337012
-1.71455e-11
-0.628913
0.340356
-1.79074e-11
-0.671405
0.343977
-1.82753e-11
-0.714266
0.347885
-1.92127e-11
-0.757522
0.352093
-1.97409e-11
-0.801198
0.356612
-2.08204e-11
-0.845321
0.361456
-2.15071e-11
-0.889916
0.36664
-2.2726e-11
-0.935011
0.37218
-2.35752e-11
-0.980632
0.378094
-2.48839e-11
-1.02681
0.384401
-2.5851e-11
-1.07356
0.391123
-2.71882e-11
-1.12093
0.398281
-2.82809e-11
-1.16892
0.4059
-2.9694e-11
-1.21759
0.414008
-3.09854e-11
-1.26693
0.422634
-3.24567e-11
-1.317
0.431809
-3.39001e-11
-1.36779
0.441569
-3.53416e-11
-1.41935
0.451952
-3.69191e-11
-1.47168
0.462997
-3.83034e-11
-1.52481
0.474751
-4.00465e-11
-1.57874
0.487262
-4.1411e-11
-1.63348
0.500582
-4.33759e-11
-1.68903
0.51477
-4.46093e-11
-1.74537
0.529887
-4.6709e-11
-1.80249
0.546001
-4.78361e-11
-1.86035
0.563186
-5.04271e-11
-1.9189
0.581521
-5.17127e-11
-1.97806
0.601091
-5.46143e-11
-2.03775
0.621989
-5.56363e-11
-2.09782
0.644313
-5.89299e-11
-2.15812
0.668167
-5.54198e-11
-2.21844
0.693663
-6.55147e-11
-2.27851
0.720919
-6.15087e-11
-2.33801
0.750056
-6.40017e-11
-2.39653
0.781202
-6.3475e-11
-2.45357
0.814484
-6.75424e-11
-2.50855
0.85003
-6.93461e-11
-2.56075
0.887961
-7.71524e-11
-2.60931
0.92839
-8.3529e-11
-2.65326
0.971411
-9.67417e-11
-2.69147
1.01709
-1.08533e-10
-2.72267
1.06545
-1.26587e-10
-2.74549
1.11647
-1.42007e-10
-2.75847
1.17004
-1.62015e-10
-2.76013
1.226
-1.77468e-10
-2.74905
1.28405
-1.95976e-10
-2.72398
1.34382
-2.08161e-10
-2.68388
1.40482
-2.22855e-10
-2.62806
1.46648
-2.30183e-10
-2.55616
1.52816
-2.4042e-10
-2.46824
1.58917
-2.43153e-10
-2.36472
1.64883
-2.49628e-10
-2.24635
1.70648
-2.49145e-10
-2.11414
1.76152
-2.52826e-10
-1.96928
1.81341
-2.50356e-10
-1.81307
1.86172
-2.51744e-10
-1.64686
1.90608
-2.47835e-10
-1.47198
1.94622
-2.46731e-10
-1.2897
1.98194
-2.40998e-10
-1.10123
2.0131
-2.36414e-10
-0.90767
2.0396
-2.28096e-10
-0.710064
2.06136
-2.20576e-10
-0.509368
2.07835
-2.14112e-10
-0.30649
2.09053
-2.0898e-10
-0.102308
2.09785
-2.00378e-10
0.10231
2.1003
-1.47907e-10
0.306492
2.09785
-2.61271e-10
0.509369
2.09053
-3.22763e-10
0.710066
2.07835
-5.20882e-10
2.06136
-6.53488e-10
-0.210739
0.356535
1.1926e-11
-0.249277
0.357809
1.54218e-11
-0.287927
0.35932
1.20899e-11
-0.326706
0.361073
1.32678e-11
-0.36563
0.363071
1.44318e-11
-0.404719
0.365318
1.41596e-11
-0.443989
0.367822
1.27953e-11
-0.483459
0.370587
1.28413e-11
-0.523145
0.373621
1.28599e-11
-0.563066
0.376932
1.31668e-11
-0.603239
0.380529
1.34368e-11
-0.643683
0.38442
1.38742e-11
-0.684414
0.388616
1.42782e-11
-0.72545
0.393129
1.47637e-11
-0.766809
0.397971
1.52575e-11
-0.808507
0.403154
1.56879e-11
-0.850562
0.408695
1.6961e-11
-0.89299
0.414608
1.79459e-11
-0.935806
0.420911
1.88263e-11
-0.979026
0.427621
1.88828e-11
-1.02266
0.43476
1.80304e-11
-1.06673
0.442349
1.81361e-11
-1.11124
0.45041
2.00731e-11
-1.1562
0.45897
2.18921e-11
-1.20162
0.468055
2.31073e-11
-1.24751
0.477695
2.35344e-11
-1.29386
0.487921
2.50972e-11
-1.34068
0.498767
2.57828e-11
-1.38795
0.51027
2.77481e-11
-1.43566
0.522468
2.85044e-11
-1.48381
0.535405
3.08645e-11
-1.53235
0.549125
3.16598e-11
-1.58126
0.563676
3.44347e-11
-1.63048
0.579111
3.52223e-11
-1.67996
0.595483
3.84066e-11
-1.72963
0.612851
3.91032e-11
-1.77938
0.631276
4.26736e-11
-1.82911
0.650824
4.32312e-11
-1.87869
0.671561
4.72395e-11
-1.92793
0.693559
4.76818e-11
-1.97666
0.71689
5.22148e-11
-2.02462
0.741629
5.27166e-11
-2.07155
0.76785
5.79595e-11
-2.11713
0.795627
5.83136e-11
-2.16096
0.825033
6.39356e-11
-2.20261
0.856135
6.3575e-11
-2.24157
0.888994
6.8611e-11
-2.27727
0.92366
6.62731e-11
-2.30905
0.96017
6.91655e-11
-2.33618
0.998542
6.34404e-11
-2.35786
1.03877
6.29022e-11
-2.37323
1.08081
5.32227e-11
-2.38136
1.1246
4.91757e-11
-2.38131
1.17
3.64392e-11
-2.37216
1.21685
3.02687e-11
-2.35303
1.26492
1.65294e-11
-2.32313
1.31392
1.03314e-11
-2.28181
1.36351
-2.23213e-12
-2.22863
1.4133
-6.73342e-12
-2.16334
1.46286
-1.67388e-11
-2.08593
1.51175
-1.88941e-11
-1.9966
1.5595
-2.61121e-11
-1.89578
1.60566
-2.63479e-11
-1.78408
1.64982
-3.13471e-11
-1.66226
1.69159
-3.05116e-11
-1.53116
1.73062
-3.38831e-11
-1.3917
1.76662
-3.23889e-11
-1.24485
1.79936
-3.39531e-11
-1.09154
1.82864
-3.10007e-11
-0.932721
1.85428
-2.93954e-11
-0.769302
1.87618
-2.33898e-11
-0.602161
1.89422
-1.84967e-11
-0.432153
1.90835
-1.24598e-11
-0.260106
1.91848
-4.33665e-12
-0.0868377
1.92458
1.88316e-11
0.0868386
1.92663
1.13338e-10
0.260107
1.92458
-6.78578e-11
0.432153
1.91848
-3.4523e-11
0.602162
1.90835
-2.89481e-10
1.89422
-3.53343e-10
-0.201725
0.393311
-2.1598e-11
-0.238573
0.394656
-2.41024e-11
-0.275505
0.396253
-1.93628e-11
-0.312535
0.398103
-1.92767e-11
-0.349676
0.400211
-1.85733e-11
-0.38694
0.402583
-1.79695e-11
-0.424341
0.405222
-1.78507e-11
-0.46189
0.408136
-1.79424e-11
-0.499601
0.411332
-1.84904e-11
-0.537484
0.414816
-1.87342e-11
-0.575551
0.418596
-1.94162e-11
-0.613815
0.422683
-1.97607e-11
-0.652285
0.427086
-2.03886e-11
-0.690972
0.431816
-2.11487e-11
-0.729886
0.436884
-2.20733e-11
-0.769035
0.442303
-2.2839e-11
-0.808427
0.448087
-2.37959e-11
-0.84807
0.454251
-2.46918e-11
-0.887969
0.460809
-2.56686e-11
-0.928128
0.46778
-2.6654e-11
-0.96855
0.475182
-2.75814e-11
-1.00923
0.483034
-2.86579e-11
-1.05018
0.491357
-2.95711e-11
-1.09139
0.500174
-3.08034e-11
-1.13284
0.509509
-3.16713e-11
-1.17453
0.519387
-3.30046e-11
-1.21645
0.529836
-3.37215e-11
-1.25857
0.540886
-3.51221e-11
-1.30086
0.552566
-3.56314e-11
-1.3433
0.564909
-3.70974e-11
-1.38585
0.577952
-3.73425e-11
-1.42845
0.591729
-3.88742e-11
-1.47106
0.606279
-3.88056e-11
-1.51359
0.621643
-4.04229e-11
-1.55597
0.637863
-4.00091e-11
-1.5981
0.654982
-4.1753e-11
-1.63987
0.673046
-4.09772e-11
-1.68115
0.692101
-4.28959e-11
-1.72178
0.712193
-4.1738e-11
-1.76159
0.733369
-4.38618e-11
-1.80038
0.755677
-4.22695e-11
-1.83791
0.779161
-4.45968e-11
-1.87392
0.803866
-4.25353e-11
-1.90813
0.82983
-4.51068e-11
-1.94018
0.857088
-4.26598e-11
-1.96972
0.885669
-4.57134e-11
-1.99632
0.915593
-4.32852e-11
-2.01952
0.946869
-4.73728e-11
-2.03884
0.97949
-4.57143e-11
-2.05374
1.01344
-5.15754e-11
-2.06364
1.04867
-5.15086e-11
-2.06795
1.08512
-5.96307e-11
-2.06605
1.1227
-6.15231e-11
-2.05734
1.16129
-7.16617e-11
-2.04122
1.20073
-7.5063e-11
-2.01715
1.24085
-8.61386e-11
-1.98464
1.28141
-8.99177e-11
-1.94331
1.32218
-1.00439e-10
-1.89288
1.36287
-1.03354e-10
-1.8332
1.40318
-1.12067e-10
-1.76426
1.44281
-1.13346e-10
-1.6862
1.48143
-1.19676e-10
-1.59928
1.51874
-1.19241e-10
-1.50389
1.55443
-1.23278e-10
-1.40052
1.58822
-1.21529e-10
-1.28975
1.61985
-1.23648e-10
-1.17223
1.6491
-1.20951e-10
-1.04862
1.67576
-1.21191e-10
-0.919641
1.69966
-1.17192e-10
-0.786009
1.72065
-1.14676e-10
-0.648446
1.73861
-1.08394e-10
-0.507672
1.75345
-1.03151e-10
-0.364404
1.76508
-9.76891e-11
-0.219356
1.77343
-8.94347e-11
-0.0732376
1.77847
-6.66444e-11
0.0732382
1.78015
2.49002e-11
0.219356
1.77847
-1.32424e-10
0.364405
1.77343
-1.25868e-10
0.507673
1.76508
-3.64602e-10
1.75345
-4.50687e-10
-0.192188
0.428323
6.89555e-12
-0.22725
0.429719
1.07927e-11
-0.262371
0.431374
8.90011e-12
-0.29756
0.433292
1.26241e-11
-0.332825
0.435476
1.20853e-11
-0.368174
0.437932
1.11774e-11
-0.403616
0.440664
1.0401e-11
-0.439157
0.443678
1.00957e-11
-0.474805
0.44698
9.9787e-12
-0.510567
0.450577
1.00255e-11
-0.546448
0.454478
1.01739e-11
-0.582455
0.45869
1.03327e-11
-0.618591
0.463222
1.06064e-11
-0.65486
0.468085
1.07899e-11
-0.691265
0.47329
1.1154e-11
-0.727808
0.478846
1.13236e-11
-0.764489
0.484768
1.17591e-11
-0.801307
0.491069
1.18875e-11
-0.838259
0.497761
1.23985e-11
-0.875341
0.504862
1.24737e-11
-0.912545
0.512386
1.30724e-11
-0.949862
0.520351
1.30802e-11
-0.98728
0.528775
1.37799e-11
-1.02478
0.537678
1.37044e-11
-1.06235
0.547079
1.4522e-11
-1.09997
0.557002
1.43472e-11
-1.1376
0.567467
1.53017e-11
-1.17521
0.578499
1.50069e-11
-1.21277
0.590124
1.61155e-11
-1.25023
0.602367
1.56702e-11
-1.28753
0.615256
1.69421e-11
-1.32462
0.628819
1.63003e-11
-1.36143
0.643085
1.77307e-11
-1.39787
0.658083
1.68252e-11
-1.43385
0.673846
1.83886e-11
-1.46927
0.690403
1.71268e-11
-1.50401
0.707785
1.87733e-11
-1.53794
0.726024
1.70389e-11
-1.57089
0.745148
1.86993e-11
-1.60271
0.765188
1.63672e-11
-1.6332
0.786169
1.79664e-11
-1.66216
0.808116
1.49183e-11
-1.68934
0.83105
1.63786e-11
-1.7145
0.854986
1.24981e-11
-1.73735
0.879937
1.37091e-11
-1.75758
0.905904
8.84656e-12
-1.77487
0.932885
9.60453e-12
-1.78887
0.960863
3.52866e-12
-1.79919
0.989814
3.503e-12
-1.80545
1.0197
-4.07069e-12
-1.80724
1.05046
-5.2605e-12
-1.80415
1.08203
-1.45144e-11
-1.79577
1.11432
-1.70888e-11
-1.7817
1.14721
-2.78772e-11
-1.76155
1.18058
-3.1688e-11
-1.73498
1.21428
-4.34153e-11
-1.70171
1.24814
-4.79099e-11
-1.6615
1.28197
-5.96536e-11
-1.61419
1.31556
-6.40786e-11
-1.5597
1.3487
-7.4886e-11
-1.49805
1.38116
-7.8587e-11
-1.42933
1.41272
-8.77746e-11
-1.35374
1.44315
-9.04057e-11
-1.27155
1.47223
-9.76823e-11
-1.18309
1.49976
-9.9228e-11
-1.08878
1.52554
-1.04621e-10
-0.989077
1.54939
-1.05205e-10
-0.884475
1.57116
-1.08733e-10
-0.775506
1.59069
-1.08144e-10
-0.662722
1.60786
-1.09335e-10
-0.54669
1.62258
-1.0702e-10
-0.427988
1.63475
-1.06303e-10
-0.307201
1.64429
-1.04985e-10
-0.18492
1.65115
-1.00817e-10
-0.0617401
1.65529
-7.92647e-11
0.0617405
1.65667
1.15974e-11
0.18492
1.65529
-1.37995e-10
0.307201
1.65115
-1.27234e-10
0.427988
1.64429
-3.40849e-10