/*--------------------------------*- C++ -*----------------------------------*\
| =========                 |                                                 |
| \\      /  F ield         | OpenFOAM: The Open Source CFD Toolbox           |
|  \\    /   O peration     | Version:  2306                                  |
|   \\  /    A nd           | Website:  www.openfoam.com                      |
|    \\/     M anipulation  |                                                 |
\*---------------------------------------------------------------------------*/
FoamFile
{
    version     2.0;
    format      ascii;
    arch        "LSB;label=32;scalar=64";
    class       volVectorField;
    location    "100";
    object      U;
}
// * * * * * * * * * * * * * * * * * * * * * * * * * * * * * * * * * * * * * //

dimensions      [0 1 -1 0 0 0 0];

internalField   nonuniform List<vector> 
14400
(
(-0.00165412 2.63963e-05 -1.85847e-12)
(-0.00198737 2.62201e-05 -1.91915e-12)
(-0.00232182 2.59656e-05 -1.27903e-12)
(-0.00265764 2.56309e-05 -1.38654e-12)
(-0.00299498 2.52144e-05 -1.36687e-12)
(-0.00333402 2.47138e-05 -1.49711e-12)
(-0.00367492 2.41258e-05 -1.50406e-12)
(-0.00401785 2.34457e-05 -1.64811e-12)
(-0.00436299 2.26677e-05 -1.65747e-12)
(-0.0047105 2.17843e-05 -1.80652e-12)
(-0.00506057 2.07864e-05 -1.81551e-12)
(-0.00541337 1.96633e-05 -1.97117e-12)
(-0.00576908 1.84023e-05 -1.98287e-12)
(-0.00612787 1.69885e-05 -2.14742e-12)
(-0.00648992 1.54048e-05 -2.16432e-12)
(-0.00685541 1.36312e-05 -2.33918e-12)
(-0.00722449 1.16447e-05 -2.36289e-12)
(-0.00759734 9.41867e-06 -2.54905e-12)
(-0.0079741 6.9222e-06 -2.58034e-12)
(-0.00835493 4.11939e-06 -2.77863e-12)
(-0.00873994 9.68387e-07 -2.81722e-12)
(-0.00912926 -2.57972e-06 -3.02836e-12)
(-0.00952297 -6.58236e-06 -3.07237e-12)
(-0.00992114 -1.11072e-05 -3.2969e-12)
(-0.0103238 -1.62343e-05 -3.3422e-12)
(-0.0107309 -2.20588e-05 -3.58067e-12)
(-0.0111424 -2.86945e-05 -3.6207e-12)
(-0.0115582 -3.62774e-05 -3.87437e-12)
(-0.011978 -4.49716e-05 -3.90084e-12)
(-0.0124015 -5.49751e-05 -4.17304e-12)
(-0.0128283 -6.65276e-05 -4.17742e-12)
(-0.0132577 -7.99204e-05 -4.4737e-12)
(-0.0136891 -9.55069e-05 -4.44549e-12)
(-0.0141213 -0.000113716 -4.7679e-12)
(-0.0145532 -0.000135066 -4.68082e-12)
(-0.0149832 -0.00016018 -5.01184e-12)
(-0.0154095 -0.000189796 -4.79198e-12)
(-0.0158301 -0.000224774 -5.081e-12)
(-0.0162426 -0.000266091 -4.58951e-12)
(-0.0166445 -0.000314799 -4.79581e-12)
(-0.0170337 -0.000371957 -3.95102e-12)
(-0.0174086 -0.000438479 -4.20445e-12)
(-0.0177694 -0.000514883 -3.41704e-12)
(-0.0181194 -0.000600899 -4.18515e-12)
(-0.0184671 -0.000694873 -4.95852e-12)
(-0.0188294 -0.000792938 -6.78661e-12)
(-0.0192361 -0.000887896 -1.14467e-11)
(-0.0197356 -0.000967831 -1.40614e-11)
(-0.0204021 -0.00101449 -2.33572e-11)
(-0.0213439 -0.00100149 -2.53851e-11)
(-0.0227112 -0.000892862 -3.55672e-11)
(-0.024705 -0.000646506 -3.7212e-11)
(-0.0275894 -0.000235187 -4.28424e-11)
(-0.0316777 0.000358099 -5.20467e-11)
(-0.0371863 0.00150932 -7.21555e-11)
(-0.0438459 0.00428959 -1.01393e-10)
(-0.0512202 0.00795105 -1.13335e-10)
(-0.0601061 0.0088051 -1.74662e-10)
(-0.0645176 0.00342399 -2.76034e-10)
(-0.0677338 -0.0287269 -6.93427e-11)
(-0.209026 0.0134366 6.00551e-12)
(-0.139811 0.336517 2.69681e-11)
(-0.11148 0.451238 1.98834e-10)
(-0.0909202 0.488716 1.73171e-10)
(-0.0804814 0.499025 1.78563e-10)
(-0.0721969 0.500714 1.52561e-10)
(-0.0642747 0.49995 1.2974e-10)
(-0.0565077 0.498766 1.00752e-10)
(-0.0488797 0.49777 8.34865e-11)
(-0.041406 0.497072 6.23703e-11)
(-0.0341097 0.496628 5.74253e-11)
(-0.0269999 0.496367 4.42451e-11)
(-0.0200661 0.496227 4.9502e-11)
(-0.0132825 0.496162 3.7055e-11)
(-0.00661324 0.49614 5.08781e-11)
(4.65114e-08 0.496137 3.18148e-11)
(0.00661333 0.49614 5.51815e-11)
(0.0132826 0.496162 -9.6393e-12)
(0.0200661 0.496227 1.90598e-10)
(0.0269999 0.496367 -5.09696e-11)
(-0.00476663 0.0017886 -1.71969e-12)
(-0.00572757 0.0017949 -2.00471e-12)
(-0.00669259 0.00180217 -1.38604e-12)
(-0.00766233 0.00181042 -1.47152e-12)
(-0.00863748 0.00181965 -1.51378e-12)
(-0.0096187 0.00182987 -1.59884e-12)
(-0.0106067 0.00184111 -1.66886e-12)
(-0.0116022 0.00185338 -1.76276e-12)
(-0.0126058 0.00186671 -1.83729e-12)
(-0.0136184 0.0018811 -1.93381e-12)
(-0.0146408 0.00189658 -2.00979e-12)
(-0.0156736 0.00191316 -2.11115e-12)
(-0.0167178 0.00193084 -2.19147e-12)
(-0.0177741 0.00194965 -2.3003e-12)
(-0.0188435 0.00196959 -2.38723e-12)
(-0.0199269 0.00199065 -2.50528e-12)
(-0.0210252 0.00201284 -2.60016e-12)
(-0.0221393 0.00203615 -2.72863e-12)
(-0.0232704 0.00206056 -2.83199e-12)
(-0.0244194 0.00208605 -2.97177e-12)
(-0.0255875 0.00211256 -3.08315e-12)
(-0.0267759 0.00214005 -3.23468e-12)
(-0.0279857 0.00216845 -3.35219e-12)
(-0.0292181 0.00219764 -3.51514e-12)
(-0.0304746 0.0022275 -3.63492e-12)
(-0.0317564 0.00225787 -3.80805e-12)
(-0.033065 0.00228854 -3.92436e-12)
(-0.034402 0.00231924 -4.10599e-12)
(-0.0357688 0.00234965 -4.21255e-12)
(-0.0371673 0.00237937 -4.4019e-12)
(-0.038599 0.00240791 -4.49433e-12)
(-0.0400661 0.00243472 -4.69222e-12)
(-0.0415703 0.00245909 -4.76755e-12)
(-0.0431141 0.00248028 -4.97078e-12)
(-0.0446999 0.00249743 -5.01252e-12)
(-0.0463304 0.0025097 -5.19436e-12)
(-0.048009 0.00251632 -5.13229e-12)
(-0.0497397 0.00251686 -5.21676e-12)
(-0.0515276 0.00251157 -4.89132e-12)
(-0.0533793 0.00250199 -4.77739e-12)
(-0.0553037 0.00249193 -4.05298e-12)
(-0.0573134 0.002489 -3.77949e-12)
(-0.0594261 0.00250674 -3.04169e-12)
(-0.061667 0.00256779 -3.04385e-12)
(-0.0640725 0.00270792 -3.97654e-12)
(-0.0666945 0.00298126 -5.0342e-12)
(-0.0696059 0.00346618 -1.04807e-11)
(-0.0729077 0.00427133 -1.30326e-11)
(-0.0767361 0.00554065 -2.43028e-11)
(-0.0812668 0.0074552 -2.81597e-11)
(-0.0867247 0.0102286 -4.12444e-11)
(-0.0934191 0.014088 -4.97311e-11)
(-0.101742 0.0192076 -6.29259e-11)
(-0.111937 0.0254197 -8.33678e-11)
(-0.124103 0.0317257 -1.28348e-10)
(-0.138644 0.0366658 -1.75356e-10)
(-0.157518 0.0406858 -2.2645e-10)
(-0.18502 0.0539465 -3.412e-10)
(-0.221047 0.108694 -2.22141e-10)
(-0.258963 0.205152 -1.58124e-10)
(-0.301551 0.272342 1.02653e-10)
(-0.302926 0.346563 1.99469e-10)
(-0.272259 0.397561 2.96362e-10)
(-0.236786 0.425482 2.74619e-10)
(-0.2047 0.440347 2.69392e-10)
(-0.176445 0.448591 2.20767e-10)
(-0.151572 0.453621 1.79847e-10)
(-0.129478 0.457104 1.40567e-10)
(-0.109569 0.459794 1.06346e-10)
(-0.0913423 0.462002 8.756e-11)
(-0.0744064 0.463844 6.96502e-11)
(-0.058452 0.465358 6.51441e-11)
(-0.0432305 0.466556 5.73862e-11)
(-0.0285358 0.467435 5.64606e-11)
(-0.0141944 0.467984 5.40147e-11)
(-7.65742e-09 0.468175 5.15925e-11)
(0.0141944 0.467984 5.00394e-11)
(0.0285358 0.467435 1.42469e-11)
(0.0432305 0.466556 1.49305e-10)
(0.058452 0.465358 2.68422e-11)
(-0.00690755 0.00509544 -2.51645e-12)
(-0.00830036 0.00511508 -2.23138e-12)
(-0.00969937 0.00513811 -1.65447e-12)
(-0.0111056 0.00516457 -1.68396e-12)
(-0.0125202 0.00519449 -1.74818e-12)
(-0.0139442 0.00522795 -1.8098e-12)
(-0.0153788 0.00526502 -1.90707e-12)
(-0.016825 0.0053058 -1.98092e-12)
(-0.0182842 0.00535037 -2.0859e-12)
(-0.0197574 0.00539885 -2.16273e-12)
(-0.021246 0.00545134 -2.27293e-12)
(-0.0227513 0.00550797 -2.35493e-12)
(-0.0242747 0.00556888 -2.47323e-12)
(-0.0258175 0.00563419 -2.56315e-12)
(-0.0273814 0.00570407 -2.69166e-12)
(-0.0289677 0.00577865 -2.7916e-12)
(-0.0305783 0.00585812 -2.93169e-12)
(-0.0322148 0.00594265 -3.04346e-12)
(-0.0338791 0.00603242 -3.19587e-12)
(-0.0355731 0.00612762 -3.32116e-12)
(-0.0372988 0.00622845 -3.48583e-12)
(-0.0390585 0.00633512 -3.62602e-12)
(-0.0408544 0.00644785 -3.80175e-12)
(-0.0426891 0.00656686 -3.95769e-12)
(-0.0445653 0.00669238 -4.14175e-12)
(-0.0464857 0.00682465 -4.31358e-12)
(-0.0484535 0.00696391 -4.50195e-12)
(-0.0504722 0.0071104 -4.68967e-12)
(-0.0525452 0.00726441 -4.87875e-12)
(-0.0546767 0.00742621 -5.08365e-12)
(-0.0568711 0.00759613 -5.27359e-12)
(-0.0591332 0.00777457 -5.49964e-12)
(-0.0614684 0.00796204 -5.69576e-12)
(-0.0638829 0.00815922 -5.94543e-12)
(-0.0663834 0.00836712 -6.14613e-12)
(-0.0689778 0.00858725 -6.40202e-12)
(-0.071675 0.00882195 -6.5568e-12)
(-0.0744855 0.00907488 -6.75063e-12)
(-0.0774214 0.00935183 -6.70091e-12)
(-0.0804973 0.00966187 -6.71347e-12)
(-0.0837303 0.0100192 -6.23216e-12)
(-0.0871413 0.0104455 -6.0061e-12)
(-0.0907559 0.0109739 -5.17032e-12)
(-0.0946053 0.0116534 -4.9193e-12)
(-0.0987279 0.0125549 -4.83345e-12)
(-0.103171 0.0137781 -5.06741e-12)
(-0.107993 0.015459 -8.04245e-12)
(-0.113264 0.0177751 -9.19868e-12)
(-0.119067 0.0209485 -1.69744e-11)
(-0.1255 0.0252416 -1.93453e-11)
(-0.132678 0.0309419 -3.04067e-11)
(-0.140754 0.0383323 -3.63815e-11)
(-0.149865 0.0476533 -4.965e-11)
(-0.160106 0.0591564 -6.34128e-11)
(-0.171718 0.0734347 -8.85623e-11)
(-0.185304 0.0916885 -1.20746e-10)
(-0.201636 0.115278 -1.4744e-10)
(-0.220432 0.144552 -1.85814e-10)
(-0.238261 0.17812 -1.37457e-10)
(-0.250265 0.212805 -1.12235e-10)
(-0.254992 0.245618 1.49304e-12)
(-0.249897 0.280226 4.55966e-11)
(-0.235348 0.311688 1.15327e-10)
(-0.216069 0.337501 1.25318e-10)
(-0.195413 0.357697 1.32477e-10)
(-0.174831 0.37326 1.17633e-10)
(-0.154871 0.385305 1.01025e-10)
(-0.135675 0.394738 8.09701e-11)
(-0.117207 0.40221 6.26939e-11)
(-0.0993706 0.40816 5.25066e-11)
(-0.0820558 0.412887 4.31813e-11)
(-0.0651593 0.416589 3.95824e-11)
(-0.0485871 0.419398 3.48684e-11)
(-0.0322563 0.421393 3.17477e-11)
(-0.0161019 0.422606 2.88921e-11)
(7.80191e-09 0.42302 2.38623e-11)
(0.0161019 0.422606 1.81126e-11)
(0.0322564 0.421393 3.57375e-12)
(0.0485871 0.419398 5.56435e-11)
(0.0651594 0.41659 7.363e-12)
(-0.00802879 0.00921412 -1.31001e-12)
(-0.0096477 0.00925073 -1.69608e-12)
(-0.0112739 0.00929392 -1.18372e-12)
(-0.0129086 0.00934379 -1.25587e-12)
(-0.0145531 0.00940044 -1.31507e-12)
(-0.0162089 0.00946401 -1.35865e-12)
(-0.0178771 0.00953468 -1.43799e-12)
(-0.0195592 0.00961261 -1.48287e-12)
(-0.0212567 0.00969804 -1.56841e-12)
(-0.022971 0.0097912 -1.61244e-12)
(-0.0247036 0.00989235 -1.70185e-12)
(-0.0264563 0.0100018 -1.74677e-12)
(-0.0282306 0.0101198 -1.84169e-12)
(-0.0300284 0.0102468 -1.88919e-12)
(-0.0318514 0.010383 -1.99074e-12)
(-0.0337016 0.010529 -2.04196e-12)
(-0.0355811 0.0106852 -2.15068e-12)
(-0.037492 0.010852 -2.20646e-12)
(-0.0394366 0.01103 -2.32233e-12)
(-0.0414175 0.0112197 -2.38326e-12)
(-0.0434371 0.0114218 -2.50541e-12)
(-0.0454982 0.011637 -2.57164e-12)
(-0.047604 0.0118659 -2.69795e-12)
(-0.0497576 0.0121094 -2.76874e-12)
(-0.0519625 0.0123685 -2.89541e-12)
(-0.0542225 0.0126441 -2.96887e-12)
(-0.0565417 0.0129373 -3.09052e-12)
(-0.0589246 0.0132494 -3.16382e-12)
(-0.061376 0.0135817 -3.2747e-12)
(-0.0639016 0.0139359 -3.34503e-12)
(-0.0665071 0.0143138 -3.44199e-12)
(-0.0691992 0.0147176 -3.50762e-12)
(-0.0719853 0.0151498 -3.59183e-12)
(-0.0748737 0.0156135 -3.64904e-12)
(-0.0778734 0.0161126 -3.71686e-12)
(-0.080995 0.0166519 -3.74535e-12)
(-0.0842499 0.0172377 -3.7525e-12)
(-0.0876515 0.0178782 -3.68895e-12)
(-0.0912144 0.0185847 -3.49155e-12)
(-0.0949552 0.0193723 -3.2237e-12)
(-0.0988924 0.0202624 -2.58126e-12)
(-0.103046 0.0212845 -2.02924e-12)
(-0.107439 0.0224801 -8.63425e-13)
(-0.112094 0.0239068 -1.51723e-13)
(-0.117035 0.0256437 8.75137e-13)
(-0.122284 0.0277972 1.33778e-12)
(-0.12786 0.0305072 5.30901e-13)
(-0.133777 0.0339517 2.51042e-13)
(-0.140039 0.0383485 -4.01388e-12)
(-0.146635 0.0439516 -5.39425e-12)
(-0.153545 0.0510403 -1.26279e-11)
(-0.160738 0.0599023 -1.5742e-11)
(-0.168166 0.0708273 -2.37277e-11)
(-0.175762 0.0841405 -2.94588e-11)
(-0.18341 0.100194 -3.63138e-11)
(-0.190822 0.119113 -4.50614e-11)
(-0.197488 0.140672 -4.57009e-11)
(-0.202647 0.164394 -5.48803e-11)
(-0.205316 0.18951 -3.90256e-11)
(-0.20476 0.21486 -3.9143e-11)
(-0.20095 0.239247 -8.64684e-12)
(-0.194055 0.262139 -1.80451e-12)
(-0.184302 0.282962 2.21614e-11)
(-0.172345 0.301363 2.54353e-11)
(-0.15899 0.317205 3.40582e-11)
(-0.144865 0.330575 3.24697e-11)
(-0.130372 0.34172 3.12937e-11)
(-0.115744 0.350941 2.85496e-11)
(-0.101102 0.358524 2.45348e-11)
(-0.0865014 0.364715 2.33475e-11)
(-0.0719634 0.369712 1.99053e-11)
(-0.0574886 0.373664 2.02856e-11)
(-0.0430677 0.376679 1.66672e-11)
(-0.028689 0.378826 1.69581e-11)
(-0.0143505 0.38013 1.21808e-11)
(3.84848e-08 0.380574 1.23117e-11)
(0.0143506 0.38013 5.02641e-12)
(0.0286891 0.378826 6.75336e-13)
(0.0430678 0.376679 1.97388e-11)
(0.0574887 0.373664 -3.78008e-12)
(-0.00845404 0.0137084 -2.84865e-12)
(-0.0101584 0.0137635 -2.3669e-12)
(-0.0118704 0.0138286 -1.78075e-12)
(-0.0135912 0.013904 -1.78696e-12)
(-0.0153222 0.0139899 -1.84372e-12)
(-0.0170647 0.0140864 -1.89038e-12)
(-0.0188203 0.0141939 -1.97934e-12)
(-0.0205903 0.0143126 -2.04084e-12)
(-0.0223763 0.0144429 -2.13869e-12)
(-0.0241798 0.0145852 -2.20548e-12)
(-0.0260025 0.0147399 -2.31015e-12)
(-0.027846 0.0149075 -2.38352e-12)
(-0.029712 0.0150886 -2.49711e-12)
(-0.0316025 0.0152836 -2.57888e-12)
(-0.0335194 0.0154933 -2.7029e-12)
(-0.0354646 0.0157184 -2.79481e-12)
(-0.0374404 0.0159595 -2.93045e-12)
(-0.039449 0.0162177 -3.0343e-12)
(-0.0414929 0.0164937 -3.18251e-12)
(-0.0435745 0.0167886 -3.30022e-12)
(-0.0456966 0.0171036 -3.46143e-12)
(-0.0478623 0.0174399 -3.59482e-12)
(-0.0500745 0.0177988 -3.76865e-12)
(-0.0523366 0.0181819 -3.91911e-12)
(-0.0546524 0.0185908 -4.10396e-12)
(-0.0570258 0.0190276 -4.27225e-12)
(-0.059461 0.0194942 -4.46522e-12)
(-0.0619627 0.0199931 -4.65144e-12)
(-0.064536 0.0205271 -4.84902e-12)
(-0.0671863 0.0210991 -5.05318e-12)
(-0.0699199 0.0217127 -5.25312e-12)
(-0.0727434 0.0223721 -5.47599e-12)
(-0.075664 0.0230819 -5.67876e-12)
(-0.0786901 0.0238479 -5.92028e-12)
(-0.0818304 0.0246765 -6.12363e-12)
(-0.0850948 0.0255758 -6.37417e-12)
(-0.0884942 0.0265556 -6.54959e-12)
(-0.0920404 0.0276277 -6.77272e-12)
(-0.0957464 0.0288071 -6.82253e-12)
(-0.0996257 0.0301126 -6.94782e-12)
(-0.103693 0.0315684 -6.69203e-12)
(-0.107963 0.0332058 -6.65772e-12)
(-0.11245 0.0350655 -5.97255e-12)
(-0.117166 0.0372004 -5.82112e-12)
(-0.12212 0.0396793 -4.98489e-12)
(-0.127315 0.0425904 -4.91386e-12)
(-0.132744 0.0460449 -4.83734e-12)
(-0.138385 0.0501802 -5.07137e-12)
(-0.144201 0.0551603 -6.73823e-12)
(-0.150128 0.0611742 -7.34568e-12)
(-0.156075 0.0684301 -1.0639e-11)
(-0.161924 0.0771474 -1.15957e-11)
(-0.167525 0.0875468 -1.50345e-11)
(-0.172692 0.0998257 -1.63289e-11)
(-0.177178 0.114079 -1.78088e-11)
(-0.180683 0.130191 -1.91156e-11)
(-0.182893 0.14783 -1.6584e-11)
(-0.183514 0.166531 -1.71659e-11)
(-0.182302 0.185771 -1.03058e-11)
(-0.179131 0.204987 -9.76717e-12)
(-0.174049 0.223643 -6.55322e-13)
(-0.167208 0.241333 3.75045e-13)
(-0.158806 0.257728 7.99535e-12)
(-0.149098 0.272606 8.10697e-12)
(-0.138369 0.285849 1.22368e-11)
(-0.126892 0.297442 1.12946e-11)
(-0.114895 0.307445 1.26608e-11)
(-0.10255 0.315972 1.15443e-11)
(-0.0899823 0.323154 1.1597e-11)
(-0.077275 0.329127 1.09966e-11)
(-0.064482 0.334009 1.04552e-11)
(-0.0516365 0.337902 1.04224e-11)
(-0.0387568 0.340881 9.19046e-12)
(-0.025854 0.342999 9.26973e-12)
(-0.0129435 0.344278 7.28189e-12)
(5.58443e-08 0.344709 7.62729e-12)
(0.0129436 0.344278 3.49854e-12)
(0.0258541 0.342999 8.72308e-12)
(0.0387569 0.340881 -6.17665e-12)
(0.0516366 0.337902 1.90056e-11)
(-0.00850566 0.0182895 -1.00569e-12)
(-0.0102199 0.0183628 -1.31637e-12)
(-0.0119415 0.0184497 -8.99352e-13)
(-0.0136716 0.0185504 -9.59078e-13)
(-0.0154115 0.0186651 -1.00403e-12)
(-0.0171626 0.0187943 -1.02867e-12)
(-0.0189262 0.0189382 -1.08529e-12)
(-0.0207038 0.0190973 -1.10763e-12)
(-0.0224967 0.019272 -1.16788e-12)
(-0.0243066 0.019463 -1.18792e-12)
(-0.0261348 0.0196708 -1.25025e-12)
(-0.0279831 0.019896 -1.26914e-12)
(-0.0298531 0.0201394 -1.33429e-12)
(-0.0317466 0.0204018 -1.35277e-12)
(-0.0336654 0.0206841 -1.42114e-12)
(-0.0356114 0.0209873 -1.43968e-12)
(-0.0375866 0.0213125 -1.51139e-12)
(-0.0395932 0.0216608 -1.53038e-12)
(-0.0416334 0.0220335 -1.60518e-12)
(-0.0437096 0.0224321 -1.62486e-12)
(-0.0458244 0.0228583 -1.70179e-12)
(-0.0479804 0.0233136 -1.72192e-12)
(-0.0501806 0.0238001 -1.79893e-12)
(-0.0524279 0.02432 -1.81844e-12)
(-0.0547257 0.0248757 -1.89188e-12)
(-0.0570775 0.0254697 -1.90841e-12)
(-0.0594871 0.0261052 -1.97272e-12)
(-0.0619585 0.0267856 -1.98234e-12)
(-0.0644963 0.0275145 -2.03012e-12)
(-0.067105 0.0282963 -2.02745e-12)
(-0.0697899 0.0291359 -2.05042e-12)
(-0.0725564 0.0300388 -2.0291e-12)
(-0.0754105 0.0310113 -2.01911e-12)
(-0.0783586 0.0320609 -1.97141e-12)
(-0.0814076 0.0331961 -1.91767e-12)
(-0.084565 0.0344266 -1.82977e-12)
(-0.0878384 0.0357641 -1.70506e-12)
(-0.0912361 0.0372224 -1.5466e-12)
(-0.0947665 0.0388177 -1.28087e-12)
(-0.0984383 0.0405697 -9.96898e-13)
(-0.102259 0.0425019 -4.64332e-13)
(-0.106237 0.0446433 4.56404e-15)
(-0.110378 0.0470291 9.09225e-13)
(-0.114683 0.0497027 1.60911e-12)
(-0.119151 0.052717 2.82507e-12)
(-0.123774 0.0561368 3.66138e-12)
(-0.128532 0.0600399 4.69887e-12)
(-0.133395 0.0645183 5.53814e-12)
(-0.138315 0.0696778 5.74282e-12)
(-0.143221 0.0756361 6.51719e-12)
(-0.14802 0.0825183 5.84502e-12)
(-0.152589 0.0904498 6.42753e-12)
(-0.156776 0.0995469 5.40338e-12)
(-0.160396 0.109903 5.74247e-12)
(-0.163237 0.12156 5.49384e-12)
(-0.16508 0.134469 5.59353e-12)
(-0.165728 0.148453 7.00812e-12)
(-0.165037 0.163209 7.18524e-12)
(-0.162927 0.178363 1.01601e-11)
(-0.159388 0.193528 1.03878e-11)
(-0.154469 0.20835 1.36504e-11)
(-0.148272 0.22254 1.36071e-11)
(-0.140928 0.235865 1.59907e-11)
(-0.132591 0.248159 1.53832e-11)
(-0.123422 0.259316 1.66494e-11)
(-0.11358 0.269287 1.59338e-11)
(-0.103209 0.278073 1.63595e-11)
(-0.0924335 0.285711 1.55636e-11)
(-0.0813548 0.292259 1.55598e-11)
(-0.0700516 0.297784 1.50207e-11)
(-0.0585839 0.302354 1.48836e-11)
(-0.0469962 0.306027 1.46632e-11)
(-0.035321 0.308851 1.43748e-11)
(-0.0235839 0.31086 1.44264e-11)
(-0.0118125 0.312068 1.38349e-11)
(5.63212e-08 0.312474 1.39717e-11)
(0.0118126 0.312068 1.49337e-11)
(0.023584 0.31086 4.62322e-12)
(0.0353212 0.308851 3.8148e-11)
(0.0469963 0.306027 -2.76177e-12)
(-0.00837831 0.0228341 -2.18323e-12)
(-0.0100661 0.0229245 -1.63097e-12)
(-0.0117606 0.0230318 -1.25569e-12)
(-0.0134629 0.0231562 -1.24562e-12)
(-0.0151743 0.0232981 -1.28912e-12)
(-0.0168959 0.0234578 -1.31564e-12)
(-0.018629 0.0236359 -1.37779e-12)
(-0.0203749 0.0238327 -1.4131e-12)
(-0.0221349 0.0240491 -1.47876e-12)
(-0.0239103 0.0242855 -1.51565e-12)
(-0.0257025 0.0245428 -1.58404e-12)
(-0.0275129 0.0248217 -1.62312e-12)
(-0.0293431 0.0251232 -1.6955e-12)
(-0.0311946 0.0254482 -1.7377e-12)
(-0.033069 0.0257979 -1.81481e-12)
(-0.034968 0.0261734 -1.86114e-12)
(-0.0368933 0.0265762 -1.94355e-12)
(-0.0388468 0.0270076 -1.99508e-12)
(-0.0408304 0.0274692 -2.0831e-12)
(-0.0428461 0.0279629 -2.14092e-12)
(-0.044896 0.0284905 -2.2343e-12)
(-0.0469825 0.0290543 -2.29928e-12)
(-0.0491077 0.0296566 -2.3969e-12)
(-0.0512743 0.0303 -2.4693e-12)
(-0.0534849 0.0309875 -2.56864e-12)
(-0.0557422 0.0317222 -2.64777e-12)
(-0.0580491 0.0325078 -2.74454e-12)
(-0.0604087 0.0333482 -2.8286e-12)
(-0.0628244 0.034248 -2.9166e-12)
(-0.0652995 0.0352121 -3.00212e-12)
(-0.0678376 0.0362461 -3.07289e-12)
(-0.0704425 0.0373565 -3.15511e-12)
(-0.0731181 0.0385502 -3.19974e-12)
(-0.0758685 0.0398355 -3.27442e-12)
(-0.0786978 0.0412215 -3.28336e-12)
(-0.0816102 0.0427185 -3.34289e-12)
(-0.0846098 0.0443386 -3.29843e-12)
(-0.0877005 0.0460953 -3.32823e-12)
(-0.090886 0.0480044 -3.19489e-12)
(-0.0941692 0.0500839 -3.16953e-12)
(-0.0975521 0.0523548 -2.88568e-12)
(-0.101035 0.0548414 -2.77457e-12)
(-0.104617 0.057572 -2.27951e-12)
(-0.108292 0.0605795 -2.06514e-12)
(-0.112051 0.0639022 -1.38049e-12)
(-0.11588 0.0675845 -1.09229e-12)
(-0.119756 0.0716769 -3.66025e-13)
(-0.123647 0.0762367 -6.71167e-14)
(-0.127508 0.0813265 3.54644e-13)
(-0.131279 0.0870129 5.91876e-13)
(-0.134885 0.0933629 7.3429e-13)
(-0.138231 0.100439 9.18458e-13)
(-0.141205 0.108293 8.86579e-13)
(-0.143675 0.116954 1.07838e-12)
(-0.145496 0.126422 1.45026e-12)
(-0.14652 0.13665 1.73812e-12)
(-0.146608 0.147542 2.82852e-12)
(-0.145653 0.158948 3.19639e-12)
(-0.143591 0.170674 4.75946e-12)
(-0.140403 0.182495 5.08289e-12)
(-0.136116 0.194178 6.80889e-12)
(-0.130792 0.205508 7.07072e-12)
(-0.124519 0.216301 8.34488e-12)
(-0.117401 0.226411 8.37095e-12)
(-0.10955 0.235733 9.09939e-12)
(-0.101076 0.244201 8.98088e-12)
(-0.0920881 0.251784 9.29449e-12)
(-0.0826812 0.258478 9.14149e-12)
(-0.0729395 0.264297 9.22169e-12)
(-0.0629336 0.269267 9.13937e-12)
(-0.0527222 0.273419 9.09953e-12)
(-0.0423528 0.276781 9.12345e-12)
(-0.0318645 0.279379 9.02455e-12)
(-0.021291 0.281229 9.04673e-12)
(-0.0106673 0.282341 9.02663e-12)
(5.28198e-08 0.282714 9.15763e-12)
(0.0106674 0.282341 7.86308e-12)
(0.0212911 0.281229 1.24914e-11)
(0.0318646 0.279379 -1.42928e-12)
(0.0423529 0.276781 2.60082e-11)
(-0.00816341 0.0272767 -5.23284e-14)
(-0.00980684 0.0273825 -3.8372e-13)
(-0.0114562 0.0275082 -2.30281e-13)
(-0.0131125 0.0276539 -2.74263e-13)
(-0.0147767 0.0278201 -3.026e-13)
(-0.01645 0.0280073 -3.03383e-13)
(-0.0181335 0.0282159 -3.28626e-13)
(-0.0198281 0.0284466 -3.1969e-13)
(-0.0215351 0.0287 -3.43071e-13)
(-0.0232555 0.0289769 -3.27668e-13)
(-0.0249906 0.0292782 -3.48866e-13)
(-0.0267416 0.0296047 -3.27595e-13)
(-0.0285098 0.0299576 -3.46459e-13)
(-0.0302963 0.0303379 -3.19284e-13)
(-0.0321026 0.0307468 -3.35494e-13)
(-0.03393 0.0311858 -3.02244e-13)
(-0.0357799 0.0316563 -3.15288e-13)
(-0.0376538 0.0321599 -2.75656e-13)
(-0.0395532 0.0326986 -2.84555e-13)
(-0.0414796 0.0332742 -2.37983e-13)
(-0.0434346 0.0338889 -2.41178e-13)
(-0.04542 0.0345451 -1.86838e-13)
(-0.0474375 0.0352453 -1.8178e-13)
(-0.0494888 0.0359926 -1.17882e-13)
(-0.0515757 0.03679 -1.00192e-13)
(-0.0537002 0.0376411 -2.36554e-14)
(-0.0558642 0.0385496 1.22938e-14)
(-0.0580697 0.0395198 1.03344e-13)
(-0.0603186 0.0405565 1.65251e-13)
(-0.0626129 0.0416647 2.82015e-13)
(-0.0649547 0.0428504 3.89049e-13)
(-0.0673458 0.04412 5.47087e-13)
(-0.0697882 0.0454804 7.1021e-13)
(-0.0722835 0.0469397 9.02486e-13)
(-0.0748332 0.0485067 1.12536e-12)
(-0.0774385 0.0501913 1.37057e-12)
(-0.0801003 0.0520044 1.68257e-12)
(-0.0828188 0.0539583 1.9971e-12)
(-0.0855935 0.0560666 2.42417e-12)
(-0.0884229 0.0583447 2.82788e-12)
(-0.0913042 0.0608096 3.40873e-12)
(-0.0942329 0.0634804 3.91965e-12)
(-0.0972024 0.0663782 4.68173e-12)
(-0.100203 0.0695268 5.38323e-12)
(-0.103222 0.0729521 6.33554e-12)
(-0.106242 0.0766828 7.16372e-12)
(-0.109239 0.08075 8.33165e-12)
(-0.112184 0.0851869 9.24714e-12)
(-0.115038 0.0900278 1.04385e-11)
(-0.117756 0.0953069 1.14166e-11)
(-0.120278 0.101056 1.25394e-11)
(-0.122538 0.107303 1.35269e-11)
(-0.124458 0.114064 1.45789e-11)
(-0.125951 0.121345 1.55332e-11)
(-0.126925 0.129128 1.66123e-11)
(-0.127286 0.137376 1.75023e-11)
(-0.126948 0.146021 1.86706e-11)
(-0.125837 0.154971 1.94522e-11)
(-0.123901 0.16411 2.06341e-11)
(-0.121114 0.173306 2.1244e-11)
(-0.117477 0.182423 2.2282e-11)
(-0.113015 0.191324 2.26811e-11)
(-0.107777 0.199885 2.34214e-11)
(-0.101825 0.207997 2.36031e-11)
(-0.0952325 0.215573 2.40146e-11)
(-0.0880771 0.222549 2.40406e-11)
(-0.0804368 0.22888 2.41956e-11)
(-0.0723858 0.234543 2.4157e-11)
(-0.0639928 0.239525 2.41868e-11)
(-0.0553191 0.243826 2.4178e-11)
(-0.0464188 0.24745 2.42577e-11)
(-0.037339 0.250406 2.43743e-11)
(-0.0281211 0.252701 2.45929e-11)
(-0.0188031 0.25434 2.48687e-11)
(-0.00942384 0.255325 2.51716e-11)
(3.89314e-08 0.255654 2.51284e-11)
(0.00942392 0.255325 2.81426e-11)
(0.0188032 0.25434 1.05169e-11)
(0.0281212 0.252701 6.51685e-11)
(0.0373391 0.250406 2.72861e-12)
(-0.0078985 0.0315858 -1.26774e-12)
(-0.00948736 0.031705 -7.41244e-13)
(-0.0110812 0.0318466 -6.20897e-13)
(-0.012681 0.0320107 -5.91505e-13)
(-0.0142875 0.032198 -6.17106e-13)
(-0.0159017 0.0324088 -6.18776e-13)
(-0.0175244 0.0326437 -6.49428e-13)
(-0.0191566 0.0329034 -6.53661e-13)
(-0.0207991 0.0331886 -6.82882e-13)
(-0.0224528 0.0335001 -6.85398e-13)
(-0.0241188 0.0338388 -7.13385e-13)
(-0.025798 0.0342057 -7.13989e-13)
(-0.0274914 0.034602 -7.40981e-13)
(-0.0291999 0.0350287 -7.39603e-13)
(-0.0309246 0.0354873 -7.65521e-13)
(-0.0326665 0.0359791 -7.62366e-13)
(-0.0344266 0.0365058 -7.87091e-13)
(-0.0362061 0.0370691 -7.8204e-13)
(-0.0380058 0.0376708 -8.03796e-13)
(-0.039827 0.038313 -7.95473e-13)
(-0.0416707 0.0389979 -8.12733e-13)
(-0.043538 0.039728 -8.02808e-13)
(-0.0454299 0.040506 -8.16664e-13)
(-0.0473477 0.0413347 -8.05023e-13)
(-0.0492922 0.0422174 -8.08907e-13)
(-0.0512645 0.0431575 -7.9047e-13)
(-0.0532656 0.0441588 -7.78884e-13)
(-0.0552963 0.0452256 -7.51987e-13)
(-0.0573576 0.0463623 -7.18098e-13)
(-0.0594501 0.047574 -6.78653e-13)
(-0.0615742 0.048866 -6.14454e-13)
(-0.0637305 0.0502445 -5.56509e-13)
(-0.0659189 0.0517158 -4.42629e-13)
(-0.0681392 0.0532873 -3.48621e-13)
(-0.0703909 0.0549666 -1.68138e-13)
(-0.0726728 0.0567624 -4.46401e-14)
(-0.0749833 0.058684 2.00424e-13)
(-0.0773199 0.0607416 3.67606e-13)
(-0.0796792 0.0629462 7.13686e-13)
(-0.082057 0.0653098 9.36569e-13)
(-0.0844474 0.0678455 1.40265e-12)
(-0.0868431 0.0705671 1.74401e-12)
(-0.0892348 0.0734897 2.3441e-12)
(-0.0916109 0.0766291 2.72881e-12)
(-0.0939571 0.0800022 3.52858e-12)
(-0.0962555 0.0836262 4.01156e-12)
(-0.0984848 0.0875191 4.98178e-12)
(-0.100619 0.0916984 5.54519e-12)
(-0.102627 0.0961812 6.64076e-12)
(-0.104474 0.100983 7.25706e-12)
(-0.106116 0.106115 8.4168e-12)
(-0.107506 0.111585 9.04911e-12)
(-0.108592 0.117395 1.02254e-11)
(-0.109317 0.123536 1.08412e-11)
(-0.109622 0.129989 1.20091e-11)
(-0.109449 0.136722 1.25865e-11)
(-0.108743 0.143688 1.37207e-11)
(-0.107459 0.150826 1.42434e-11)
(-0.105561 0.158064 1.52931e-11)
(-0.103028 0.16532 1.57442e-11)
(-0.0998543 0.172505 1.66407e-11)
(-0.0960498 0.179533 1.70064e-11)
(-0.0916382 0.18632 1.76964e-11)
(-0.086655 0.192791 1.7975e-11)
(-0.0811446 0.198881 1.84468e-11)
(-0.0751573 0.204537 1.86544e-11)
(-0.0687463 0.209717 1.8937e-11)
(-0.0619651 0.214393 1.91029e-11)
(-0.0548658 0.218543 1.92582e-11)
(-0.0474977 0.222154 1.94245e-11)
(-0.0399067 0.225218 1.95519e-11)
(-0.0321352 0.227731 1.97762e-11)
(-0.0242224 0.229689 1.99699e-11)
(-0.0162059 0.231091 2.01869e-11)
(-0.0081244 0.231934 2.06267e-11)
(2.94923e-08 0.232217 2.06186e-11)
(0.00812446 0.231934 2.11555e-11)
(0.016206 0.231091 1.6565e-11)
(0.0242225 0.229689 2.98984e-11)
(0.0321352 0.227731 2.72064e-11)
(-0.00759951 0.0357395 7.40104e-13)
(-0.00912687 0.0358699 4.38458e-13)
(-0.0106583 0.0360246 3.44137e-13)
(-0.0121945 0.0362041 3.26319e-13)
(-0.0137361 0.0364087 3.10595e-13)
(-0.015284 0.036639 3.24734e-13)
(-0.0168386 0.0368955 3.28776e-13)
(-0.0184008 0.0371789 3.63923e-13)
(-0.0199713 0.0374901 3.71687e-13)
(-0.0215507 0.0378297 4.14314e-13)
(-0.0231398 0.0381988 4.26602e-13)
(-0.0247393 0.0385983 4.77071e-13)
(-0.0263498 0.0390293 4.94744e-13)
(-0.0279721 0.0394931 5.53547e-13)
(-0.0296069 0.039991 5.76817e-13)
(-0.0312548 0.0405244 6.42338e-13)
(-0.0329165 0.041095 6.67204e-13)
(-0.0345927 0.0417043 7.40582e-13)
(-0.036284 0.0423544 7.8456e-13)
(-0.037991 0.0430471 8.88888e-13)
(-0.0397143 0.0437847 9.60244e-13)
(-0.0414545 0.0445696 1.06494e-12)
(-0.043212 0.0454044 1.11254e-12)
(-0.0449873 0.0462917 1.20867e-12)
(-0.0467807 0.0472347 1.28926e-12)
(-0.0485924 0.0482366 1.42358e-12)
(-0.0504226 0.049301 1.53147e-12)
(-0.0522713 0.0504316 1.68237e-12)
(-0.0541383 0.0516327 1.82089e-12)
(-0.0560233 0.0529088 1.99665e-12)
(-0.0579256 0.0542645 2.17749e-12)
(-0.0598444 0.0557053 2.38507e-12)
(-0.0617785 0.0572366 2.62163e-12)
(-0.0637261 0.0588647 2.86935e-12)
(-0.0656854 0.0605958 3.17672e-12)
(-0.0676535 0.0624371 3.47206e-12)
(-0.0696273 0.064396 3.86542e-12)
(-0.0716026 0.0664803 4.21708e-12)
(-0.0735745 0.0686985 4.71552e-12)
(-0.0755371 0.0710594 5.13279e-12)
(-0.0774832 0.0735721 5.75601e-12)
(-0.0794043 0.0762464 6.24984e-12)
(-0.0812903 0.0790921 7.01781e-12)
(-0.0831292 0.0821192 7.59108e-12)
(-0.0849072 0.0853376 8.52103e-12)
(-0.0866081 0.0887571 9.17738e-12)
(-0.088213 0.0923868 1.02677e-11)
(-0.0897006 0.0962349 1.0998e-11)
(-0.0910464 0.100308 1.22239e-11)
(-0.092223 0.104611 1.30056e-11)
(-0.0931999 0.109146 1.43169e-11)
(-0.0939438 0.11391 1.5116e-11)
(-0.0944191 0.118897 1.64477e-11)
(-0.0945889 0.124094 1.72253e-11)
(-0.0944156 0.129483 1.85107e-11)
(-0.0938628 0.135036 1.92302e-11)
(-0.092897 0.14072 2.04095e-11)
(-0.0914894 0.146492 2.10425e-11)
(-0.089618 0.152304 2.20661e-11)
(-0.0872685 0.158101 2.25947e-11)
(-0.0844359 0.163828 2.34282e-11)
(-0.081124 0.169427 2.38463e-11)
(-0.0773459 0.174841 2.44744e-11)
(-0.0731223 0.180018 2.47874e-11)
(-0.0684806 0.18491 2.52172e-11)
(-0.063453 0.189478 2.54406e-11)
(-0.0580752 0.193686 2.57015e-11)
(-0.0523845 0.197506 2.586e-11)
(-0.0464191 0.200916 2.60139e-11)
(-0.0402166 0.2039 2.61451e-11)
(-0.0338137 0.206443 2.63066e-11)
(-0.0272459 0.208538 2.64684e-11)
(-0.0205475 0.210175 2.67033e-11)
(-0.0137523 0.211349 2.68655e-11)
(-0.00689534 0.212056 2.71941e-11)
(1.85799e-08 0.212293 2.69616e-11)
(0.00689538 0.212056 2.92857e-11)
(0.0137523 0.211349 1.35355e-11)
(0.0205476 0.210175 6.10697e-11)
(0.0272459 0.208538 1.28694e-11)
(-0.00727512 0.0397225 -3.44829e-13)
(-0.00873584 0.0398617 7.75627e-14)
(-0.0101997 0.0400268 -3.27093e-14)
(-0.0116672 0.0402183 6.87225e-15)
(-0.0131388 0.0404365 -3.1564e-15)
(-0.014615 0.040682 1.46962e-14)
(-0.0160964 0.0409553 1.0731e-14)
(-0.0175835 0.0412571 3.12214e-14)
(-0.0190767 0.0415882 3.29824e-14)
(-0.0205766 0.0419494 5.79119e-14)
(-0.0220835 0.0423415 6.36307e-14)
(-0.023598 0.0427656 9.32438e-14)
(-0.0251205 0.0432227 1.0415e-13)
(-0.0266514 0.0437141 1.42378e-13)
(-0.0281911 0.0442409 1.59616e-13)
(-0.02974 0.0448046 2.01927e-13)
(-0.0312984 0.0454067 2.24756e-13)
(-0.0328666 0.0460489 2.73869e-13)
(-0.0344448 0.0467328 3.05703e-13)
(-0.0360333 0.0474604 3.64104e-13)
(-0.0376322 0.0482337 4.07461e-13)
(-0.0392416 0.0490549 4.74389e-13)
(-0.0408614 0.0499264 5.28939e-13)
(-0.0424916 0.0508507 6.05454e-13)
(-0.0441318 0.0518306 6.78791e-13)
(-0.0457818 0.052869 7.71067e-13)
(-0.0474409 0.0539689 8.69428e-13)
(-0.0491086 0.0551338 9.79984e-13)
(-0.0507839 0.0563673 1.11085e-12)
(-0.0524657 0.0576731 1.24485e-12)
(-0.0541525 0.0590554 1.41865e-12)