/*--------------------------------*- C++ -*----------------------------------*\
| =========                 |                                                 |
| \\      /  F ield         | OpenFOAM: The Open Source CFD Toolbox           |
|  \\    /   O peration     | Version:  2306                                  |
|   \\  /    A nd           | Website:  www.openfoam.com                      |
|    \\/     M anipulation  |                                                 |
\*---------------------------------------------------------------------------*/
FoamFile
{
    version     2.0;
    format      ascii;
    arch        "LSB;label=32;scalar=64";
    class       volScalarField;
    location    "50";
    object      p_rgh;
}
// * * * * * * * * * * * * * * * * * * * * * * * * * * * * * * * * * * * * * //

dimensions      [1 -1 -2 0 0 0 0];

internalField   nonuniform List<scalar> 
14400
(
0.0012117
0.000934732
0.000597968
0.000197245
-0.000272242
-0.000818977
-0.00145428
-0.00212617
-0.00258812
-0.00328675
-0.00895428
-0.0192326
-0.0402814
-0.0543453
-0.0557612
-0.05104
-0.0460262
-0.0419153
-0.0384048
-0.0353133
-0.0325875
-0.0301869
-0.0280695
-0.0261979
-0.0245394
-0.0230656
-0.021752
-0.0205775
-0.019524
-0.018576
-0.0177203
-0.0169456
-0.0162421
-0.0156016
-0.0150169
-0.0144818
-0.013991
-0.01354
-0.0131246
-0.0127414
-0.0123873
-0.0120596
-0.0117559
-0.0114742
-0.0112125
-0.0109692
-0.0107428
-0.010532
-0.0103357
-0.0101528
-0.00998234
-0.00982344
-0.00967535
-0.00953739
-0.00940891
-0.00928936
-0.00917822
-0.00907503
-0.00897937
-0.00889085
-0.00880914
-0.00873391
-0.0086649
-0.00860185
-0.00854453
-0.00849275
-0.00844633
-0.00840511
-0.00836897
-0.00833777
-0.00831145
-0.00828992
-0.00827313
-0.00826106
-0.0082537
-0.00825116
-0.00825354
-0.00826074
-0.00827265
-0.00828929
4.80374e-05
-0.000300326
-0.000743976
-0.00130667
-0.00202582
-0.00296269
-0.00421056
-0.00588705
-0.00831929
-0.0133143
-0.0240489
-0.0291915
-0.0326621
-0.0362539
-0.0383379
-0.0379214
-0.0359741
-0.0336854
-0.0314883
-0.0294372
-0.0275411
-0.025807
-0.024232
-0.0228065
-0.0215179
-0.0203534
-0.0193002
-0.0183466
-0.0174817
-0.016696
-0.0159807
-0.0153282
-0.014732
-0.0141859
-0.0136849
-0.0132244
-0.0128004
-0.0124092
-0.0120479
-0.0117136
-0.0114039
-0.0111167
-0.0108499
-0.010602
-0.0103713
-0.0101565
-0.00995636
-0.00976979
-0.00959579
-0.00943348
-0.00928205
-0.00914078
-0.00900901
-0.00888615
-0.00877165
-0.00866504
-0.00856587
-0.00847373
-0.00838827
-0.00830915
-0.00823608
-0.00816878
-0.00810702
-0.00805057
-0.00799924
-0.00795285
-0.00791124
-0.00787428
-0.00784185
-0.00781385
-0.00779018
-0.00777078
-0.0077556
-0.00774456
-0.00773763
-0.00773515
-0.00773747
-0.00774425
-0.00775513
-0.00777016
-0.00390472
-0.004332
-0.00486045
-0.0055032
-0.00627859
-0.00721474
-0.00835941
-0.00978165
-0.0115661
-0.0139933
-0.0175481
-0.0210866
-0.0243997
-0.0265283
-0.0271747
-0.0268486
-0.0260368
-0.0250239
-0.0239457
-0.0228585
-0.0217931
-0.0207701
-0.0198011
-0.018891
-0.0180413
-0.0172508
-0.0165172
-0.0158373
-0.0152078
-0.014625
-0.0140856
-0.013586
-0.0131233
-0.0126943
-0.0122963
-0.0119269
-0.0115837
-0.0112645
-0.0109676
-0.010691
-0.0104333
-0.0101929
-0.00996865
-0.00975923
-0.0095636
-0.00938077
-0.00920984
-0.00905
-0.00890052
-0.0087607
-0.00862995
-0.00850769
-0.00839342
-0.00828667
-0.00818702
-0.00809408
-0.00800749
-0.00792694
-0.00785212
-0.00778277
-0.00771865
-0.00765954
-0.00760523
-0.00755554
-0.00751032
-0.0074694
-0.00743268
-0.00740002
-0.00737132
-0.00734651
-0.00732549
-0.00730821
-0.00729461
-0.00728462
-0.00727815
-0.00727576
-0.007278
-0.00728432
-0.00729416
-0.00730762
-0.00791134
-0.00827309
-0.00871454
-0.00923992
-0.0098549
-0.010567
-0.0113849
-0.0123067
-0.0132856
-0.0142585
-0.0152647
-0.0162516
-0.0171158
-0.0176926
-0.0179418
-0.0179267
-0.0177488
-0.0174689
-0.017115
-0.0167078
-0.0162659
-0.0158045
-0.0153356
-0.0148679
-0.0144079
-0.0139602
-0.0135279
-0.0131131
-0.012717
-0.0123401
-0.0119826
-0.0116442
-0.0113245
-0.0110228
-0.0107384
-0.0104706
-0.0102184
-0.0099811
-0.00975786
-0.00954787
-0.00935036
-0.00916462
-0.00898994
-0.00882567
-0.0086712
-0.00852596
-0.00838941
-0.00826106
-0.00814044
-0.00802711
-0.0079207
-0.00782081
-0.00772711
-0.0076393
-0.00755706
-0.00748014
-0.00740829
-0.00734128
-0.00727889
-0.00722094
-0.00716725
-0.00711766
-0.00707201
-0.00703018
-0.00699205
-0.00695749
-0.00692642
-0.00689875
-0.00687439
-0.00685328
-0.00683536
-0.00682057
-0.00680888
-0.0068002
-0.00679447
-0.0067923
-0.00679433
-0.00679992
-0.00680846
-0.00682001
-0.00530594
-0.00547498
-0.0056809
-0.00592246
-0.00619881
-0.00650975
-0.00685611
-0.00723916
-0.00765809
-0.00811285
-0.00861181
-0.00914457
-0.00969396
-0.0102218
-0.0106852
-0.0110549
-0.0113256
-0.0115051
-0.0116041
-0.0116342
-0.0116068
-0.0115326
-0.0114214
-0.0112815
-0.01112
-0.0109431
-0.0107556
-0.0105616
-0.0103643
-0.0101664
-0.00996998
-0.00977653
-0.0095873
-0.00940318
-0.00922484
-0.00905271
-0.00888708
-0.00872812
-0.00857588
-0.00843035
-0.00829145
-0.00815905
-0.00803302
-0.00791317
-0.0077993
-0.00769123
-0.00758875
-0.00749164
-0.00739972
-0.00731277
-0.00723061
-0.00715304
-0.00707989
-0.00701099
-0.00694618
-0.00688529
-0.00682819
-0.00677474
-0.00672481
-0.00667829
-0.00663505
-0.006595
-0.00655805
-0.00652409
-0.00649307
-0.00646489
-0.00643949
-0.00641682
-0.00639682
-0.00637944
-0.00636464
-0.00635239
-0.00634265
-0.00633535
-0.00633044
-0.00632855
-0.00633031
-0.00633508
-0.00634225
-0.00635186
-0.00164135
-0.00176519
-0.00192084
-0.00210931
-0.00233212
-0.00259133
-0.00288942
-0.0032288
-0.00361102
-0.00403619
-0.00450156
-0.00499591
-0.00550259
-0.0059997
-0.00646632
-0.0068878
-0.00725677
-0.00757089
-0.00783067
-0.00803856
-0.00819836
-0.0083147
-0.00839255
-0.00843692
-0.00845262
-0.00844413
-0.00841553
-0.00837045
-0.00831208
-0.00824321
-0.00816623
-0.00808319
-0.0079958
-0.00790551
-0.00781354
-0.00772087
-0.00762833
-0.00753658
-0.00744617
-0.00735751
-0.00727095
-0.00718674
-0.00710508
-0.00702611
-0.00694994
-0.00687664
-0.00680623
-0.00673874
-0.00667416
-0.00661247
-0.00655364
-0.00649763
-0.0064444
-0.0063939
-0.00634608
-0.00630088
-0.00625824
-0.00621811
-0.00618045
-0.00614518
-0.00611227
-0.00608166
-0.00605331
-0.00602717
-0.0060032
-0.00598136
-0.00596162
-0.00594393
-0.00592828
-0.00591464
-0.00590297
-0.00589326
-0.00588549
-0.00587961
-0.00587557
-0.00587398
-0.00587545
-0.00587937
-0.00588513
-0.00589278
0.000655662
0.000540169
0.000395354
0.000220169
1.34016e-05
-0.000226234
-0.000499874
-0.000808124
-0.00115056
-0.0015253
-0.00192848
-0.00235328
-0.00279044
-0.00322892
-0.00365769
-0.00406719
-0.00445012
-0.00480145
-0.00511823
-0.0053992
-0.00564453
-0.00585539
-0.00603372
-0.00618187
-0.0063025
-0.00639831
-0.00647203
-0.00652626
-0.00656346
-0.00658591
-0.0065957
-0.0065947
-0.00658461
-0.0065669
-0.00654292
-0.00651381
-0.00648058
-0.00644412
-0.00640518
-0.00636441
-0.00632237
-0.00627955
-0.00623635
-0.00619311
-0.00615012
-0.00610764
-0.00606586
-0.00602494
-0.00598504
-0.00594627
-0.00590871
-0.00587245
-0.00583753
-0.00580401
-0.00577192
-0.00574129
-0.00571214
-0.00568446
-0.00565828
-0.0056336
-0.0056104
-0.0055887
-0.00556848
-0.00554973
-0.00553245
-0.00551663
-0.00550226
-0.00548933
-0.00547783
-0.00546775
-0.00545908
-0.00545182
-0.00544595
-0.00544144
-0.00543824
-0.00543695
-0.00543813
-0.00544122
-0.00544562
-0.00545138
0.00197713
0.00186482
0.0017258
0.00155947
0.00136525
0.00114274
0.000891818
0.000612908
0.000307206
-2.30951e-05
-0.000374611
-0.000742621
-0.00112126
-0.00150392
-0.00188387
-0.00225486
-0.00261156
-0.00294973
-0.00326625
-0.00355905
-0.003827
-0.00406979
-0.0042877
-0.00448154
-0.00465245
-0.00480182
-0.00493121
-0.00504221
-0.00513646
-0.00521555
-0.00528103
-0.00533436
-0.00537689
-0.0054099
-0.00543456
-0.0054519
-0.00546291
-0.00546843
-0.00546925
-0.00546607
-0.00545949
-0.00545006
-0.00543828
-0.00542456
-0.00540929
-0.0053928
-0.00537538
-0.00535728
-0.00533872
-0.00531991
-0.005301
-0.00528215
-0.00526348
-0.00524511
-0.00522712
-0.0052096
-0.00519263
-0.00517625
-0.00516053
-0.0051455
-0.0051312
-0.00511768
-0.00510494
-0.00509302
-0.00508192
-0.00507168
-0.0050623
-0.00505378
-0.00504615
-0.00503939
-0.00503353
-0.00502856
-0.00502448
-0.00502126
-0.00501887
-0.00501786
-0.00501877
-0.00502107
-0.00502419
-0.00502818
0.00269522
0.00258826
0.0024577
0.00230336
0.00212521
0.00192344
0.00169852
0.00145132
0.00118325
0.000896295
0.000593117
0.000277031
-4.81052e-05
-0.000378077
-0.000708576
-0.00103546
-0.00135497
-0.00166386
-0.00195949
-0.00223979
-0.00250332
-0.00274915
-0.00297683
-0.0031863
-0.00337784
-0.00355196
-0.00370939
-0.00385098
-0.00397768
-0.00409049
-0.00419042
-0.00427851
-0.00435573
-0.00442306
-0.00448142
-0.00453166
-0.0045746
-0.00461099
-0.00464152
-0.00466684
-0.00468754
-0.00470414
-0.00471714
-0.00472698
-0.00473405
-0.00473871
-0.0047413
-0.00474209
-0.00474136
-0.00473933
-0.00473622
-0.00473221
-0.00472748
-0.00472216
-0.00471639
-0.0047103
-0.00470398
-0.00469752
-0.00469102
-0.00468454
-0.00467816
-0.00467191
-0.00466586
-0.00466005
-0.00465452
-0.0046493
-0.00464441
-0.00463989
-0.00463576
-0.00463203
-0.00462871
-0.00462583
-0.00462338
-0.00462134
-0.0046197
-0.00461895
-0.00461962
-0.00462118
-0.00462313
-0.0046255
0.00302637
0.00292742
0.00280797
0.00266816
0.00250826
0.00232875
0.00213036
0.00191406
0.0016812
0.00143346
0.00117291
0.000901934
0.000623223
0.000339633
5.40852e-05
-0.000230568
-0.00051165
-0.000786749
-0.00105377
-0.00131097
-0.00155695
-0.00179068
-0.00201144
-0.0022188
-0.00241259
-0.00259284
-0.00275978
-0.00291377
-0.00305529
-0.00318489
-0.00330318
-0.00341081
-0.00350846
-0.00359679
-0.00367647
-0.00374815
-0.00381245
-0.00386998
-0.00392131
-0.00396697
-0.00400748
-0.0040433
-0.00407487
-0.0041026
-0.00412686
-0.004148
-0.00416633
-0.00418215
-0.00419573
-0.00420729
-0.00421708
-0.00422528
-0.00423209
-0.00423766
-0.00424214
-0.00424568
-0.0042484
-0.00425041
-0.0042518
-0.00425268
-0.00425311
-0.00425318
-0.00425294
-0.00425246
-0.00425179
-0.00425097
-0.00425004
-0.00424904
-0.004248
-0.00424694
-0.00424588
-0.00424485
-0.00424386
-0.00424288
-0.00424191
-0.0042414
-0.00424184
-0.00424274
-0.00424365
-0.00424458
0.00312179
0.00303276
0.00292615
0.00280226
0.00266151
0.00250447
0.00233192
0.00214478
0.00194423
0.00173165
0.00150861
0.0012769
0.00103844
0.000795274
0.000549449
0.000303001
5.78733e-05
-0.00018413
-0.000421383
-0.000652466
-0.000876175
-0.00109153
-0.00129776
-0.0014943
-0.00168078
-0.00185698
-0.00202285
-0.00217844
-0.00232393
-0.00245956
-0.00258566
-0.0027026
-0.00281078
-0.00291064
-0.00300264
-0.00308722
-0.00316485
-0.00323598
-0.00330104
-0.00336046
-0.00341464
-0.00346398
-0.00350884
-0.00354958
-0.00358653
-0.00361998
-0.00365024
-0.00367756
-0.0037022
-0.00372438
-0.00374433
-0.00376224
-0.00377828
-0.00379264
-0.00380546
-0.00381687
-0.00382703
-0.00383603
-0.00384398
-0.00385099
-0.00385715
-0.00386253
-0.00386721
-0.00387125
-0.00387471
-0.00387764
-0.0038801
-0.00388212
-0.00388373
-0.00388498
-0.00388587
-0.00388645
-0.00388672
-0.00388666
-0.00388628
-0.00388599
-0.00388623
-0.00388655
-0.00388655
-0.00388623
0.00307439
0.00299581
0.00290226
0.00279407
0.00267172
0.00253579
0.00238696
0.00222609
0.00205414
0.00187223
0.00168159
0.00148356
0.00127958
0.00107113
0.000859726
0.00064686
0.000433979
0.000222448
1.35319e-05
-0.000191631
-0.000392037
-0.000586823
-0.000775271
-0.000956802
-0.00113097
-0.00129746
-0.00145606
-0.00160667
-0.00174926
-0.0018839
-0.00201072
-0.00212989
-0.00224164
-0.00234622
-0.00244391
-0.002535
-0.00261982
-0.00269868
-0.0027719
-0.00283979
-0.00290267
-0.00296085
-0.00301461
-0.00306424
-0.00311001
-0.00315219
-0.00319102
-0.00322673
-0.00325955
-0.00328967
-0.0033173
-0.00334262
-0.00336579
-0.00338698
-0.00340632
-0.00342396
-0.00344001
-0.00345461
-0.00346784
-0.00347982
-0.00349063
-0.00350034
-0.00350905
-0.00351681
-0.00352369
-0.00352974
-0.00353501
-0.00353955
-0.00354339
-0.00354656
-0.0035491
-0.00355103
-0.00355237
-0.0035531
-0.00355323
-0.00355313
-0.00355319
-0.00355302
-0.00355224
-0.00355087
0.00294458
0.00287615
0.002795
0.00270147
0.00259601
0.00247914
0.00235147
0.00221373
0.00206669
0.00191127
0.00174841
0.00157917
0.00140462
0.00122588
0.0010441
0.000860394
0.000675867
0.00049157
0.000308493
0.000127548
-5.04386e-05
-0.000224733
-0.000394696
-0.000559788
-0.000719563
-0.000873663
-0.00102182
-0.00116384
-0.00129961
-0.00142906
-0.00155221
-0.00166909
-0.00177981
-0.00188449
-0.00198329
-0.00207638
-0.00216396
-0.00224625
-0.00232346
-0.00239581
-0.00246354
-0.00252686
-0.00258601
-0.00264121
-0.00269267
-0.0027406
-0.00278521
-0.00282668
-0.0028652
-0.00290096
-0.00293411
-0.00296482
-0.00299324
-0.00301951
-0.00304375
-0.0030661
-0.00308668
-0.00310557
-0.0031229
-0.00313875
-0.00315321
-0.00316636
-0.00317826
-0.00318899
-0.0031986
-0.00320715
-0.0032147
-0.00322127
-0.00322691
-0.00323166
-0.00323554
-0.00323858
-0.0032408
-0.00324218
-0.00324273
-0.00324279
-0.00324271
-0.00324213
-0.00324071
-0.00323847
0.00277006
0.00271095
0.00264104
0.00256066
0.00247018
0.00237006
0.00226084
0.00214309
0.00201746
0.00188468
0.0017455
0.00160073
0.00145121
0.0012978
0.00114137
0.000982798
0.00082293
0.000662589
0.000502557
0.000343569
0.000186302
3.13727e-05
-0.000120667
-0.000269334
-0.00041421
-0.000554943
-0.000691247
-0.000822893
-0.00094971
-0.00107158
-0.00118842
-0.00130022
-0.00140697
-0.00150871
-0.00160551
-0.00169747
-0.0017847
-0.00186731
-0.00194545
-0.00201928
-0.00208894
-0.0021546
-0.00221642
-0.00227457
-0.00232921
-0.0023805
-0.0024286
-0.00247367
-0.00251586
-0.0025553
-0.00259215
-0.00262653
-0.00265858
-0.00268841
-0.00271614
-0.00274188
-0.00276574
-0.0027878
-0.00280816
-0.0028269
-0.0028441
-0.00285984
-0.00287418
-0.00288718
-0.0028989
-0.00290939
-0.00291869
-0.00292686
-0.00293392
-0.00293991
-0.00294485
-0.00294877
-0.00295168
-0.00295359
-0.00295449
-0.00295468
-0.00295447
-0.00295356
-0.00295163
-0.0029487
0.00257462
0.00252381
0.00246382
0.00239493
0.00231749
0.00223186
0.00213849
0.00203785
0.00193049
0.00181696
0.00169788
0.00157387
0.0014456
0.00131374
0.00117898
0.00104199
0.000903436
0.000763979
0.000624242
0.000484817
0.000346263
0.000209093
7.37787e-05
-5.92566e-05
-0.000189637
-0.000317034
-0.000441166
-0.000561799
-0.000678739
-0.000791834
-0.000900972
-0.00100607
-0.00110709
-0.00120401
-0.00129684
-0.0013856
-0.00147035
-0.00155115
-0.00162808
-0.00170123
-0.00177071
-0.00183661
-0.00189905
-0.00195815
-0.00201403
-0.00206681
-0.00211661
-0.00216354
-0.00220773
-0.00224928
-0.00228832
-0.00232495
-0.00235927
-0.00239139
-0.00242141
-0.0024494
-0.00247548
-0.00249971
-0.00252217
-0.00254295
-0.0025621
-0.00257969
-0.00259579
-0.00261044
-0.0026237
-0.00263562
-0.00264624
-0.00265559
-0.00266371
-0.00267063
-0.00267637
-0.00268096
-0.00268442
-0.00268673
-0.0026879
-0.0026882
-0.0026879
-0.00268672
-0.0026844
-0.00268094
0.00237301
0.00232943
0.00227803
0.00221905
0.00215279
0.00207955
0.00199969
0.00191362
0.00182175
0.00172454
0.00162247
0.00151606
0.00140582
0.00129229
0.00117601
0.00105751
0.000937327
0.000815984
0.000693986
0.000571816
0.000449933
0.000328767
0.000208716
9.01482e-05
-2.66057e-05
-0.000141248
-0.000253517
-0.000363183
-0.000470053
-0.000573962
-0.000674777
-0.000772395
-0.000866738
-0.00095775
-0.0010454
-0.00112968
-0.00121059
-0.00128815
-0.0013624
-0.00143339
-0.00150117
-0.00156581
-0.00162738
-0.00168595
-0.00174162
-0.00179446
-0.00184456
-0.001892
-0.00193689
-0.0019793
-0.00201932
-0.00205703
-0.00209253
-0.00212589
-0.00215718
-0.0021865
-0.0022139
-0.00223946
-0.00226324
-0.00228531
-0.00230573
-0.00232454
-0.00234181
-0.00235758
-0.0023719
-0.0023848
-0.00239632
-0.0024065
-0.00241537
-0.00242295
-0.00242927
-0.00243434
-0.00243818
-0.0024408
-0.00244218
-0.00244256
-0.00244218
-0.00244081
-0.0024382
-0.00243436
0.00217422
0.00213684
0.0020928
0.00204229
0.00198556
0.00192285
0.00185446
0.00178072
0.00170196
0.00161856
0.00153091
0.0014394
0.00134446
0.00124652
0.00114599
0.00104333
0.000938947
0.000833271
0.000726711
0.000619665
0.00051251
0.000405608
0.000299295
0.000193886
8.96715e-05
-1.30847e-05
-0.000114144
-0.000213293
-0.000310344
-0.000405135
-0.000497527
-0.000587403
-0.000674668
-0.000759248
-0.000841086
-0.000920144
-0.000996398
-0.00106984
-0.00114047
-0.00120831
-0.00127338
-0.00133571
-0.00139534
-0.00145233
-0.00150672
-0.00155856
-0.00160792
-0.00165486
-0.00169944
-0.00174173
-0.00178179
-0.00181968
-0.00185547
-0.00188922
-0.00192099
-0.00195085
-0.00197885
-0.00200505
-0.0020295
-0.00205225
-0.00207336
-0.00209286
-0.00211081
-0.00212723
-0.00214218
-0.00215568
-0.00216777
-0.00217847
-0.00218781
-0.00219582
-0.00220251
-0.0022079
-0.00221201
-0.00221483
-0.00221636
-0.00221681
-0.00221638
-0.00221486
-0.00221205
-0.00220796
0.00198352
0.00195144
0.00191367
0.00187036
0.0018217
0.00176791
0.00170923
0.00164592
0.00157826
0.00150654
0.00143109
0.00135222
0.00127027
0.00118559
0.00109852
0.00100941
0.000918612
0.000826467
0.000733311
0.000639471
0.000545262
0.000450985
0.000356926
0.000263355
0.000170523
7.86627e-05
-1.20127e-05
-0.000101309
-0.00018905
-0.000275082
-0.000359266
-0.000441485
-0.000521634
-0.000599631
-0.000675404
-0.000748898
-0.000820072
-0.000888896
-0.000955351
-0.00101943
-0.00108113
-0.00114047
-0.00119746
-0.00125212
-0.00130448
-0.00135458
-0.00140245
-0.00144813
-0.00149166
-0.00153309
-0.00157247
-0.00160983
-0.00164523
-0.00167872
-0.00171033
-0.00174013
-0.00176814
-0.00179442
-0.00181901
-0.00184194
-0.00186326
-0.00188301
-0.00190122
-0.00191792
-0.00193315
-0.00194693
-0.00195929
-0.00197026
-0.00197985
-0.00198808
-0.00199498
-0.00200055
-0.00200481
-0.00200776
-0.00200939
-0.00200988
-0.00200941
-0.00200781
-0.00200488
-0.00200064
0.00180385
0.00177628
0.00174382
0.0017066
0.00166478
0.00161854
0.00156807
0.00151359
0.00145531
0.00139349
0.00132838
0.00126023
0.00118933
0.00111595
0.00104037
0.000962884
0.000883768
0.000803305
0.000721772
0.000639442
0.000556575
0.000473425
0.000390235
0.000307236
0.000224643
0.000142661
6.14782e-05
-1.87295e-05
-9.78028e-05
-0.000175596
-0.00025198
-0.000326836
-0.000400063
-0.000471572
-0.000541286
-0.00060914
-0.000675081
-0.000739068
-0.000801067
-0.000861054
-0.000919015
-0.000974942
-0.00102883
-0.00108069
-0.00113054
-0.00117837
-0.00122422
-0.00126811
-0.00131006
-0.0013501
-0.00138826
-0.00142458
-0.00145908
-0.00149179
-0.00152276
-0.00155201
-0.00157958
-0.0016055
-0.00162981
-0.00165253
-0.00167369
-0.00169333
-0.00171147
-0.00172814
-0.00174337
-0.00175716
-0.00176956
-0.00178057
-0.00179022
-0.00179852
-0.00180548
-0.00181112
-0.00181544
-0.00181844
-0.00182013
-0.00182066
-0.00182016
-0.00181851
-0.00181553
-0.00181124
0.00163662
0.00161287
0.00158491
0.00155286
0.00151683
0.00147698
0.00143346
0.00138645
0.00133613
0.0012827
0.00122636
0.00116733
0.00110584
0.00104211
0.000976362
0.000908842
0.000839779
0.000769406
0.000697951
0.000625641
0.000552695
0.000479327
0.000405742
0.000332137
0.0002587
0.000185608
0.000113027
4.11135e-05
-2.99882e-05
-0.000100145
-0.000169236
-0.000237149
-0.000303786
-0.000369058
-0.000432887
-0.000495203
-0.000555948
-0.000615072
-0.000672534
-0.000728299
-0.000782342
-0.000834642
-0.000885186
-0.000933966
-0.00098098
-0.00102623
-0.00106972
-0.00111146
-0.00115146
-0.00118974
-0.00122631
-0.0012612
-0.00129442
-0.00132599
-0.00135595
-0.0013843
-0.00141108
-0.00143631
-0.00146001
-0.00148221
-0.00150292
-0.00152217
-0.00153998
-0.00155638
-0.00157137
-0.00158497
-0.00159721
-0.0016081
-0.00161765
-0.00162588
-0.00163279
-0.0016384
-0.00164271
-0.00164572
-0.00164743
-0.00164797
-0.00164746
-0.00164579
-0.00164281
-0.00163854
0.00148229
0.00146179
0.00143765
0.00140996
0.00137885
0.00134441
0.00130678
0.00126611
0.00122254
0.00117624
0.00112737
0.00107612
0.00102265
0.000967167
0.000909852
0.000850899
0.0007905
0.000728848
0.000666135
0.000602548
0.000538273
0.000473491
0.000408375
0.000343095
0.000277811
0.000212679
0.000147845
8.34455e-05
1.9611e-05
-4.35382e-05
-0.00010589
-0.000167343
-0.000227801
-0.000287179
-0.000345401
-0.000402396
-0.000458104
-0.000512472
-0.000565452
-0.000617005
-0.000667097
-0.0007157
-0.000762793
-0.000808358
-0.000852383
-0.00089486
-0.000935784
-0.000975154
-0.00101297
-0.00104924
-0.00108398
-0.00111718
-0.00114886
-0.00117904
-0.00120772
-0.00123492
-0.00126066
-0.00128495
-0.00130781
-0.00132924
-0.00134928
-0.00136793
-0.00138521
-0.00140114
-0.00141572
-0.00142897
-0.00144091
-0.00145154
-0.00146087
-0.00146892
-0.00147569
-0.00148119
-0.00148543
-0.0014884
-0.0014901
-0.00149065
-0.00149015
-0.00148848
-0.00148555
-0.00148136
0.00134075
0.00132299
0.0013021
0.00127813
0.00125118
0.00122134
0.00118872
0.00115343
0.00111561
0.00107538
0.00103288
0.000988261
0.000941667
0.000893253
0.000843178
0.000791599
0.000738678
0.000684576
0.000629451
0.000573463
0.000516766
0.000459515
0.000401858
0.00034394
0.0002859
0.000227871
0.000169983
0.000112356
5.51062e-05
-1.65846e-06
-5.78363e-05
-0.000113333
-0.00016806
-0.000221937
-0.00027489
-0.000326852
-0.000377761
-0.000427563
-0.000476209
-0.000523656
-0.000569865
-0.000614806
-0.000658449
-0.000700772
-0.000741755
-0.000781384
-0.000819646
-0.000856533
-0.00089204
-0.000926162
-0.000958901
-0.000990257
-0.00102023
-0.00104884
-0.00107607
-0.00110194
-0.00112646
-0.00114964
-0.00117148
-0.001192
-0.0012112
-0.00122909
-0.0012457
-0.00126101
-0.00127505
-0.00128783
-0.00129935
-0.00130962
-0.00131864
-0.00132643
-0.00133299
-0.00133833
-0.00134245
-0.00134534
-0.00134702
-0.00134756
-0.00134706
-0.00134543
-0.00134258
-0.00133851
0.0012115
0.00119609
0.00117795
0.00115714
0.00113373
0.00110781
0.00107945
0.00104876
0.00101584
0.000980799
0.000943748
0.000904809
0.000864106
0.000821768
0.000777925
0.000732709
0.000686255
0.000638696
0.000590168
0.000540803
0.000490733
0.000440089
0.000388998
0.000337584
0.000285967
0.000234264
0.000182587
0.000131042
7.97319e-05
2.87539e-05
-2.18005e-05
-7.18451e-05
-0.000121299
-0.000170087
-0.00021814
-0.000265392
-0.000311786
-0.000357265
-0.000401783
-0.000445294
-0.000487758
-0.000529141
-0.000569412
-0.000608542
-0.000646509
-0.000683293
-0.000718876
-0.000753245
-0.000786388
-0.000818297
-0.000848966
-0.000878389
-0.000906565
-0.000933492
-0.000959171
-0.000983603
-0.00100679
-0.00102874
-0.00104945
-0.00106893
-0.00108718
-0.00110422
-0.00112004
-0.00113465
-0.00114805
-0.00116026
-0.00117128
-0.00118111
-0.00118976
-0.00119724
-0.00120354
-0.00120867
-0.00121263
-0.00121542
-0.00121705
-0.00121758
-0.00121709
-0.00121552
-0.00121277
-0.00120885
0.00109387
0.00108046
0.00106467
0.00104656
0.00102618
0.00100359
0.000978879
0.000952116
0.000923389
0.000892787
0.000860407
0.000826347
0.000790712
0.000753607
0.000715142
0.000675427
0.000634575
0.000592699
0.000549912
0.000506328
0.000462058
0.000417213
0.000371902
0.000326232
0.000280307
0.000234229
0.000188094
0.000141997
9.60295e-05
5.02768e-05
4.82151e-06
-4.02582e-05
-8.48887e-05
-0.000129001
-0.000172529
-0.000215413
-0.000257596
-0.000299026
-0.000339656
-0.000379441
-0.000418341
-0.000456319
-0.000493344
-0.000529385
-0.000564416
-0.000598415
-0.00063136
-0.000663234
-0.000694023
-0.000723712
-0.000752292
-0.000779754
-0.00080609
-0.000831295
-0.000855366
-0.000878298
-0.000900092
-0.000920745
-0.000940259
-0.000958633
-0.00097587
-0.000991972
-0.00100694
-0.00102078
-0.00103349
-0.00104507
-0.00105553
-0.00106488
-0.0010731
-0.00108022
-0.00108622
-0.00109111
-0.00109489
-0.00109757
-0.00109913
-0.00109964
-0.00109918
-0.00109766
-0.00109504
-0.0010913
0.000987075
0.000975377
0.000961602
0.000945793
0.000928
0.000908276
0.000886683
0.000863287
0.000838158
0.000811372
0.000783009
0.00075315
0.000721884
0.000689298
0.000655485
0.000620537
0.000584549
0.000547617
0.000509837
0.000471305
0.000432115
0.000392364
0.000352144
0.000311547
0.000270665
0.000229584
0.00018839
0.000147166
0.000105992
6.49453e-05
2.40989e-05
-1.64766e-05
-5.67141e-05
-9.65503e-05
-0.000135925
-0.000174782
-0.000213069
-0.000250735
-0.000287734
-0.000324025
-0.000359567
-0.000394324
-0.000428263
-0.000461353
-0.000493567
-0.00052488
-0.00055527
-0.000584716
-0.0006132
-0.000640708
-0.000667224
-0.000692738
-0.000717239
-0.000740719
-0.000763169
-0.000784584
-0.000804958
-0.000824289
-0.000842572
-0.000859807
-0.00087599
-0.000891121
-0.0009052
-0.000918227
-0.000930201
-0.000941124
-0.000950996
-0.000959818
-0.000967592
-0.000974317
-0.000979996
-0.000984629
-0.000988216
-0.000990757
-0.000992247
-0.000992742
-0.000992297
-0.000990857
-0.000988367
-0.000984828
0.000890297
0.000880066
0.000868017
0.000854187
0.000838615
0.000821348
0.000802437
0.000781936
0.000759905
0.000736406
0.000711507
0.000685276
0.000657787
0.000629114
0.000599335
0.000568528
0.000536772
0.00050415
0.000470743
0.000436632
0.000401899
0.000366626
0.000330893
0.000294779
0.000258363
0.000221722
0.000184929
0.000148059
0.000111181
7.43637e-05
3.76734e-05
1.17292e-06
-3.50771e-05
-7.1019e-05
-0.000106598
-0.000141761
-0.00017646
-0.000210648
-0.000244281
-0.000277319
-0.000309723
-0.000341458
-0.000372491
-0.000402791
-0.000432331
-0.000461084
-0.000489028
-0.00051614
-0.000542402
-0.000567796
-0.000592307
-0.000615919
-0.000638621
-0.000660402
-0.000681252
-0.000701161
-0.000720124
-0.000738133
-0.000755183
-0.000771269
-0.000786388
-0.000800536
-0.000813711
-0.000825911
-0.000837133
-0.000847377
-0.000856642
-0.000864926
-0.00087223
-0.000878554
-0.000883897
-0.000888259
-0.000891641
-0.000894039
-0.000895451
-0.000895924
-0.000895502
-0.00089414
-0.000891793
-0.000888461
0.000802715
0.000793746
0.000783183
0.000771056
0.000757397
0.000742247
0.000725647
0.000707644
0.000688286
0.000667628
0.000645725
0.000622636
0.000598422
0.000573145
0.000546873
0.00051967
0.000491605
0.000462748
0.000433166
0.000402932
0.000372114
0.000340783
0.000309007
0.000276857
0.0002444
0.000211702
0.000178829
0.000145845
0.000112813
7.97936e-05
4.68446e-05
1.40231e-05
-1.86165e-05
-5.10216e-05
-8.31422e-05
-0.000114931
-0.000146341
-0.00017733
-0.000207858
-0.000237885
-0.000267374
-0.000296293
-0.000324609
-0.000352292
-0.000379314
-0.000405651
-0.000431277
-0.00045617
-0.000480312
-0.000503683
-0.000526266
-0.000548046
-0.000569009
-0.000589142
-0.000608433
-0.000626874
-0.000644453
-0.000661164
-0.000676999
-0.000691951
-0.000706015
-0.000719187
-0.000731461
-0.000742834
-0.000753303
-0.000762866
-0.00077152
-0.000779262
-0.000786093
-0.000792009
-0.000797011
-0.000801098
-0.000804269
-0.000806521
-0.000807852
-0.0008083
-0.000807903
-0.000806622
-0.000804421
-0.0008013
0.000723538
0.000715659
0.000706378
0.000695721
0.000683715
0.000670393
0.000655792
0.000639949
0.000622907
0.00060471
0.000585406
0.000565044
0.000543676
0.000521356
0.000498139
0.000474082
0.000449242
0.000423679
0.000397452
0.000370622
0.000343248
0.00031539
0.00028711
0.000258467
0.000229519
0.000200326
0.000170944
0.00014143
0.000111839
8.22252e-05
5.26402e-05
2.3135e-05
-6.24133e-06
-3.54416e-05
-6.44202e-05
-9.31334e-05
-0.00012154
-0.000149599
-0.000177272
-0.000204525
-0.000231322
-0.000257631
-0.000283422
-0.000308665
-0.000333334
-0.000357404
-0.00038085
-0.000403652
-0.000425788
-0.00044724
-0.00046799
-0.000488021
-0.00050732
-0.000525872
-0.000543666
-0.000560689
-0.000576931
-0.000592384
-0.000607037
-0.000620885
-0.00063392
-0.000646135
-0.000657526
-0.000668088
-0.000677815
-0.000686706
-0.000694755
-0.000701961
-0.000708322
-0.000713834
-0.000718496
-0.000722308
-0.000725268
-0.000727373
-0.000728621
-0.000729043
-0.000728671
-0.000727474
-0.000725419
-0.000722509
0.000652014
0.000645078
0.000636908
0.000627523
0.000616949
0.000605213
0.000592344
0.000578376
0.000563345
0.000547287
0.000530243
0.000512256
0.000493368
0.000473627
0.000453079
0.000431772
0.000409757
0.000387083
0.000363802
0.000339965
0.000315626
0.000290834
0.000265644
0.000240106
0.000214273
0.000188195
0.000161923
0.000135506
0.000108994
8.24327e-05
5.58701e-05
2.93512e-05
2.91997e-06
-2.3381e-05
-4.95104e-05
-7.54285e-05
-0.000101097
-0.000126479
-0.00015154
-0.000176246
-0.000200565
-0.000224466
-0.000247921
-0.000270902
-0.000293383
-0.00031534
-0.00033675
-0.000357591
-0.000377844
-0.000397489
-0.000416508
-0.000434886
-0.000452607
-0.000469657
-0.000486022
-0.000501692
-0.000516655
-0.0005309
-0.000544419
-0.000557203
-0.000569244
-0.000580535
-0.000591071
-0.000600845
-0.000609852
-0.000618088
-0.000625549
-0.000632231
-0.000638131
-0.000643247
-0.000647577
-0.000651119
-0.00065387
-0.00065583
-0.000656995
-0.000657392
-0.000657045
-0.00065593
-0.00065402
-0.000651318
0.000587442
0.000581325
0.000574119
0.00056584
0.00055651
0.000546151
0.000534789
0.000522453
0.000509171
0.000494977
0.000479905
0.00046399
0.00044727
0.000429784
0.000411572
0.000392676
0.000373139
0.000353004
0.000332315
0.000311116
0.000289453
0.000267371
0.000244915
0.000222131
0.000199063
0.000175757
0.000152256
0.000128604
0.000104845
8.10205e-05
5.71721e-05
3.33401e-05
9.56423e-06
-1.41172e-05
-3.7667e-05
-6.10489e-05
-8.42282e-05
-0.000107171
-0.000129846
-0.00015222
-0.000174266
-0.000195953
-0.000217256
-0.000238147
-0.000258603
-0.000278601
-0.000298117
-0.000317132
-0.000335626
-0.00035358
-0.000370977
-0.000387801
-0.000404035
-0.000419668
-0.000434684
-0.000449071
-0.000462819
-0.000475917
-0.000488355
-0.000500124
-0.000511215
-0.000521622
-0.000531337
-0.000540355
-0.000548669
-0.000556275
-0.000563168
-0.000569345
-0.000574801
-0.000579534
-0.000583541
-0.00058682
-0.00058937
-0.000591188
-0.000592271
-0.000592642
-0.000592321
-0.000591286
-0.000589517
-0.000587016
0.00052917
0.000523767
0.0005174
0.000510084
0.000501838
0.00049268
0.000482632
0.000471719
0.000459965
0.0004474
0.00043405
0.000419948
0.000405126
0.000389617
0.000373455
0.000356677
0.000339319
0.000321418
0.000303013
0.000284142
0.000264845
0.00024516
0.000225128
0.000204787
0.000184177
0.000163338
0.000142308
0.000121126
9.98297e-05
7.84572e-05
5.70452e-05
3.56298e-05
1.42463e-05
-7.07069e-06
-2.82876e-05
-4.93716e-05
-7.02912e-05