/*--------------------------------*- C++ -*----------------------------------*\
| =========                 |                                                 |
| \\      /  F ield         | OpenFOAM: The Open Source CFD Toolbox           |
|  \\    /   O peration     | Version:  2306                                  |
|   \\  /    A nd           | Website:  www.openfoam.com                      |
|    \\/     M anipulation  |                                                 |
\*---------------------------------------------------------------------------*/
FoamFile
{
    version     2.0;
    format      ascii;
    arch        "LSB;label=32;scalar=64";
    class       surfaceScalarField;
    location    "50";
    object      phi;
}
// * * * * * * * * * * * * * * * * * * * * * * * * * * * * * * * * * * * * * //

dimensions      [0 3 -1 0 0 0 0];

oriented        oriented;

internalField   nonuniform List<scalar> 
37980
(
1.56039
4.42129
-3.66748e-08
1.87794
4.40716
-5.10729e-08
2.21266
4.38998
-6.40887e-08
2.56835
4.36902
-8.32436e-08
2.95028
4.34277
-1.00523e-07
3.36739
4.3076
-1.13119e-07
3.83809
4.254
-1.1601e-07
4.406
4.1568
-7.40161e-08
5.18693
3.94378
-2.89849e-08
6.55472
3.35691
4.37312e-07
5.01293
1.54179
7.7725e-08
3.89332
1.11961
1.71726e-07
3.06736
0.825965
1.89368e-08
2.47761
0.589742
2.05732e-08
2.06233
0.415285
2.71693e-08
1.77285
0.289477
2.47028e-08
1.56947
0.203379
1.58272e-08
1.42375
0.145723
7.38477e-09
1.31608
0.107669
1.5252e-09
1.23331
0.082769
-1.64114e-09
1.16686
0.0664509
-2.97514e-09
1.11122
0.0556381
-2.87362e-09
1.0629
0.0483269
-2.23092e-09
1.01966
0.0432383
-1.32389e-09
0.98009
0.0395672
-6.01358e-10
0.943279
0.0368107
-5.12056e-11
0.908625
0.0346542
2.29287e-10
0.875725
0.0328998
3.73999e-10
0.844304
0.0314214
3.81958e-10
0.814166
0.0301376
3.638e-10
0.785171
0.0289954
3.06654e-10
0.757211
0.02796
2.72288e-10
0.730202
0.0270083
2.30744e-10
0.704077
0.0261247
2.15624e-10
0.678779
0.0252986
1.95498e-10
0.654256
0.0245227
1.93194e-10
0.630464
0.0237918
1.83175e-10
0.607362
0.0231018
1.84187e-10
0.584913
0.0224499
1.76772e-10
0.563079
0.0218337
1.77069e-10
0.541828
0.021251
1.6987e-10
0.521128
0.0207
1.68975e-10
0.500949
0.0201792
1.61893e-10
0.481262
0.019687
1.60382e-10
0.46204
0.019222
1.53759e-10
0.443257
0.018783
1.52151e-10
0.424888
0.0183686
1.46181e-10
0.40691
0.0179777
1.44723e-10
0.389301
0.0176091
1.39413e-10
0.37204
0.0172618
1.38166e-10
0.355105
0.0169348
1.33436e-10
0.338477
0.0166272
1.32379e-10
0.32214
0.016338
1.28132e-10
0.306073
0.0160664
1.27226e-10
0.290261
0.0158116
1.23382e-10
0.274688
0.015573
1.22588e-10
0.259339
0.0153497
1.19094e-10
0.244198
0.0151412
1.18383e-10
0.229251
0.0149469
1.1521e-10
0.214484
0.0147663
1.14562e-10
0.199886
0.0145987
1.117e-10
0.185442
0.0144437
1.11099e-10
0.171141
0.014301
1.08551e-10
0.156971
0.01417
1.07981e-10
0.14292
0.0140504
1.05756e-10
0.128979
0.0139419
1.05176e-10
0.115135
0.013844
1.03239e-10
0.101378
0.0137566
1.02509e-10
0.0876987
0.0136792
1.00691e-10
0.0740871
0.0136117
9.9542e-11
0.0605333
0.0135538
9.77446e-11
0.047028
0.0135053
9.63832e-11
0.0335616
0.0134664
9.53454e-11
0.0201244
0.0134372
9.13304e-11
0.00670618
0.0134183
7.97632e-11
-0.00670532
0.0134115
4.4411e-11
-0.0201236
0.0134182
1.21048e-10
-0.0335607
0.0134371
9.9068e-11
-0.0470271
0.0134664
1.73022e-10
0.0135053
1.83251e-10
2.2942
3.98214
1.24383e-08
2.75196
3.9494
8.66784e-09
3.23459
3.90735
2.49969e-09
3.75054
3.85306
-6.59175e-09
4.3113
3.78201
-1.99506e-08
4.93178
3.68713
-2.95436e-08
5.62833
3.55744
-4.03732e-08
6.40891
3.37621
-4.14813e-08
7.2322
3.12049
-3.92825e-08
7.82647
2.76264
-3.12526e-08
7.07885
2.28941
1.51046e-08
6.35321
1.84525
1.77676e-08
5.73834
1.44083
2.2775e-08
5.22092
1.10716
1.81627e-08
4.7842
0.852002
1.4829e-08
4.41172
0.66196
1.05776e-08
4.0937
0.5214
5.29126e-09
3.82104
0.41838
3.62398e-11
3.58528
0.343427
-3.20245e-09
3.37911
0.288946
-4.47389e-09
3.19654
0.249016
-4.36111e-09
3.03294
0.219241
-3.49752e-09
2.88475
0.196512
-2.34758e-09
2.74929
0.178697
-1.4108e-09
2.6245
0.164358
-6.6743e-10
2.50878
0.152531
-2.09975e-10
2.40088
0.142562
1.53024e-11
2.29977
0.134005
9.17911e-11
2.20465
0.126544
8.53493e-11
2.11483
0.119957
4.82988e-11
2.02975
0.114078
7.38597e-12
1.94892
0.108787
-2.28476e-11
1.87194
0.103991
-4.119e-11
1.79844
0.0996176
-4.82492e-11
1.72813
0.0956115
-4.895e-11
1.66073
0.0919273
-4.55222e-11
1.59599
0.0885284
-4.13587e-11
1.53371
0.0853845
-3.71487e-11
1.47369
0.0824699
-3.41257e-11
1.41576
0.0797631
-3.20496e-11
1.35976
0.0772453
-3.1025e-11
1.30556
0.0749003
-3.07352e-11
1.25303
0.0727139
-3.08848e-11
1.20204
0.0706735
-3.14302e-11
1.15249
0.0687679
-3.19483e-11
1.10429
0.0669872
-3.26916e-11
1.05734
0.0653223
-3.31624e-11
1.01155
0.0637652
-3.38328e-11
0.96685
0.0623087
-3.41274e-11
0.923166
0.0609461
-3.46632e-11
0.880429
0.0596715
-3.47846e-11
0.838577
0.0584795
-3.5205e-11
0.79755
0.057365
-3.51958e-11
0.757292
0.0563238
-3.55365e-11
0.717752
0.0553515
-3.54425e-11
0.678881
0.0544445
-3.57362e-11
0.640631
0.0535994
-3.55953e-11
0.602959
0.0528131
-3.58663e-11
0.565824
0.0520827
-3.57093e-11
0.529184
0.0514056
-3.59773e-11
0.493003
0.0507795
-3.58303e-11
0.457245
0.0502022
-3.61115e-11
0.421874
0.0496718
-3.60011e-11
0.386858
0.0491865
-3.63148e-11
0.352163
0.0487447
-3.62736e-11
0.31776
0.0483448
-3.66557e-11
0.283619
0.0479857
-3.67595e-11
0.249709
0.047666
-3.73313e-11
0.216004
0.0473848
-3.77944e-11
0.182474
0.0471412
-3.88247e-11
0.149093
0.0469345
-3.98536e-11
0.115835
0.0467642
-4.1183e-11
0.0826708
0.0466301
-4.20653e-11
0.0495754
0.0465326
-4.53558e-11
0.016521
0.0464726
-5.56174e-11
-0.0165196
0.0464521
-8.66796e-11
-0.0495739
0.0464726
-3.63224e-11
-0.0826694
0.0465326
-5.54939e-11
-0.115833
0.0466301
7.25959e-13
0.0467641
1.25712e-11
2.26525
3.55868
-8.35507e-10
2.69757
3.51709
-2.29178e-09
3.14024
3.46468
-4.10266e-09
3.59434
3.39897
-6.6796e-09
4.05987
3.31647
-9.56358e-09
4.53459
3.21241
-1.0765e-08
5.01132
3.08071
-1.02834e-08
5.47289
2.91464
-6.73499e-09
5.88399
2.70938
-2.01973e-09
6.1819
2.46474
3.8258e-09
6.28619
2.18511
7.92336e-09
6.24066
1.89078
1.18671e-08
6.07881
1.60269
1.31126e-08
5.84445
1.34152
1.19997e-08
5.57728
1.11917
8.2001e-09
5.30097
0.938269
4.21655e-09
5.02799
0.794381
6.70653e-10
4.76533
0.681047
-2.11298e-09
4.51678
0.591975
-3.60633e-09
4.28408
0.521648
-3.95936e-09
4.06755
0.465543
-3.54283e-09
3.86665
0.420142
-2.73982e-09
3.68035
0.382806
-1.88852e-09
3.50744
0.351609
-1.15667e-09
3.34664
0.325155
-6.37683e-10
3.19675
0.30243
-3.21412e-10
3.05662
0.282688
-1.63351e-10
2.92525
0.265373
-1.07014e-10
2.80174
0.250061
-1.02524e-10
2.68527
0.236422
-1.17929e-10
2.57515
0.224197
-1.32982e-10
2.47076
0.213181
-1.41225e-10
2.37154
0.203205
-1.40426e-10
2.27703
0.194134
-1.33489e-10
2.18678
0.185855
-1.22403e-10
2.10044
0.178273
-1.10381e-10
2.01765
0.171311
-9.83996e-11
1.93814
0.164901
-8.81045e-11
1.86162
0.158985
-7.91209e-11
1.78787
0.153516
-7.21564e-11
1.71667
0.148449
-6.62453e-11
1.64782
0.143749
-6.18697e-11
1.58115
0.139383
-5.79768e-11
1.5165
0.135322
-5.51256e-11
1.45373
0.131541
-5.23379e-11
1.3927
0.128019
-5.02923e-11
1.33328
0.124734
-4.80874e-11
1.27538
0.121669
-4.64845e-11
1.21888
0.118809
-4.46241e-11
1.16369
0.116138
-4.33095e-11
1.10971
0.113645
-4.16978e-11
1.05688
0.111317
-4.061e-11
1.0051
0.109144
-3.92084e-11
0.954304
0.107117
-3.83182e-11
0.904428
0.105227
-3.71065e-11
0.855407
0.103466
-3.6394e-11
0.807179
0.101827
-3.53574e-11
0.759689
0.100303
-3.48052e-11
0.712882
0.0988899
-3.39314e-11
0.666706
0.0975809
-3.35235e-11
0.621114
0.0963716
-3.2804e-11
0.576059
0.0952577
-3.25287e-11
0.531496
0.0942352
-3.19607e-11
0.487382
0.0933005
-3.18144e-11
0.443676
0.0924505
-3.14081e-11
0.400338
0.0916822
-3.14094e-11
0.357331
0.0909931
-3.12237e-11
0.314616
0.090381
-3.14767e-11
0.272157
0.0898437
-3.17072e-11
0.229918
0.0893798
-3.24473e-11
0.187865
0.0889877
-3.32868e-11
0.145963
0.0886666
-3.43689e-11
0.104177
0.088416
-3.5277e-11
0.0624737
0.0882358
-3.88651e-11
0.0208197
0.0881266
-4.99514e-11
-0.0208182
0.0880899
-8.30142e-11
-0.0624722
0.0881266
-3.23524e-11
-0.104175
0.0882358
-6.55085e-11
-0.145961
0.088416
-6.58526e-12
0.0886666
-6.47872e-12
2.11886
3.16877
-2.07613e-09
2.51168
3.12426
-2.47112e-09
2.90704
3.06932
-3.09487e-09
3.30361
3.00239
-3.72242e-09
3.69864
2.92144
-4.41386e-09
4.08702
2.82403
-4.34792e-09
4.46022
2.70751
-3.42167e-09
4.80526
2.56961
-1.31766e-09
5.10521
2.40943
1.34389e-09
5.34158
2.22837
4.08593e-09
5.49598
2.03072
5.99161e-09
5.56137
1.82539
6.73706e-09
5.5413
1.62275
6.3297e-09
5.44993
1.4329
4.89958e-09
5.30622
1.26287
3.01468e-09
5.12889
1.1156
1.02198e-09
4.93284
0.990435
-5.01158e-10
4.72894
0.884947
-1.46822e-09
4.52473
0.796181
-1.80694e-09
4.32511
0.721269
-1.69396e-09
4.13298
0.657676
-1.31143e-09
3.94984
0.603286
-8.35781e-10
3.77625
0.556395
-4.10234e-10
3.6122
0.515651
-8.50954e-11
3.45737
0.479994
1.12204e-10
3.31121
0.448583
2.06633e-10
3.17315
0.42075
2.26299e-10
3.04257
0.395955
2.06832e-10
2.91887
0.37376
1.70859e-10
2.80149
0.353805
1.35939e-10
2.68989
0.335789
1.07775e-10
2.58361
0.319464
8.98334e-11
2.4822
0.304621
7.93315e-11
2.38525
0.291081
7.53237e-11
2.29241
0.278696
7.40354e-11
2.20334
0.267337
7.47994e-11
2.11776
0.256893
7.52731e-11
2.03539
0.247271
7.57488e-11
1.95599
0.238387
7.51473e-11
1.87933
0.230172
7.41617e-11
1.80522
0.222561
7.23492e-11
1.73347
0.2155
7.03377e-11
1.66391
0.208942
6.79358e-11
1.59639
0.202844
6.55381e-11
1.53076
0.197167
6.30672e-11
1.4669
0.191879
6.06856e-11
1.40469
0.186949
5.84052e-11
1.34401
0.18235
5.6208e-11
1.28476
0.178059
5.41971e-11
1.22684
0.174054
5.22206e-11
1.17017
0.170316
5.0474e-11
1.11466
0.166826
4.8702e-11
1.06024
0.163569
4.71863e-11
1.00682
0.160532
4.55904e-11
0.95435
0.1577
4.42709e-11
0.902754
0.155062
4.28257e-11
0.851974
0.152607
4.16719e-11
0.801951
0.150326
4.03578e-11
0.752631
0.14821
3.93464e-11
0.703961
0.146251
3.81497e-11
0.655891
0.144441
3.72606e-11
0.608374
0.142775
3.61694e-11
0.561363
0.141246
3.5384e-11
0.514815
0.139849
3.43877e-11
0.468687
0.138578
3.36873e-11
0.422938
0.137431
3.27739e-11
0.377529
0.136402
3.21341e-11
0.33242
0.13549
3.12749e-11
0.287575
0.134689
3.06456e-11
0.242956
0.133999
2.98016e-11
0.198526
0.133417
2.92636e-11
0.154251
0.132942
2.88173e-11
0.110095
0.132572
2.92027e-11
0.0660241
0.132307
2.83967e-11
0.022003
0.132148
2.3542e-11
-0.0220015
0.132094
4.45853e-12
-0.0660226
0.132148
3.50552e-11
-0.110094
0.132307
2.69548e-11
-0.15425
0.132572
6.20885e-11
0.132942
7.7466e-11
1.9053
2.82331
-1.49546e-09
2.24928
2.78027
-1.63433e-09
2.59053
2.72807
-1.66213e-09
2.92702
2.66591
-1.78138e-09
3.25563
2.59284
-2.04964e-09
3.57179
2.50787
-2.07052e-09
3.86916
2.41014
-1.85627e-09
4.13956
2.29921
-1.24997e-09
4.37351
2.17548
-5.36923e-10
4.5613
2.04058
2.00913e-10
4.69447
1.89755
6.31406e-10
4.7689
1.75096
6.71861e-10
4.78569
1.60596
3.3869e-10
4.75123
1.46737
-2.67455e-10
4.67537
1.33873
-8.68565e-10
4.56904
1.22192
-1.38774e-09
4.44212
1.11736
-1.6366e-09
4.30258
1.02448
-1.69108e-09
4.15647
0.942298
-1.5265e-09
4.00812
0.869612
-1.2709e-09
3.86055
0.805249
-9.61096e-10
3.71572
0.74812
-6.87174e-10
3.57485
0.697265
-4.62475e-10
3.43865
0.651855
-3.14754e-10
3.30746
0.611181
-2.23646e-10
3.1814
0.574637
-1.83786e-10
3.06045
0.541708
-1.68512e-10
2.94445
0.51195
-1.69545e-10
2.83323
0.484984
-1.71203e-10
2.72655
0.460484
-1.72017e-10
2.62417
0.438166
-1.66962e-10
2.52585
0.417786
-1.58649e-10
2.43134
0.399132
-1.46743e-10
2.3404
0.382022
-1.34049e-10
2.2528
0.366294
-1.20929e-10
2.16833
0.351808
-1.09029e-10
2.08678
0.338442
-9.82321e-11
2.00796
0.326088
-8.92301e-11
1.9317
0.314653
-8.14791e-11
1.85782
0.304051
-7.5289e-11
1.78617
0.294211
-6.99601e-11
1.7166
0.285065
-6.57772e-11
1.64899
0.276557
-6.20284e-11
1.5832
0.268634
-5.91016e-11
1.51912
0.261249
-5.63058e-11
1.45664
0.254362
-5.41435e-11
1.39565
0.247935
-5.19286e-11
1.33607
0.241934
-5.02539e-11
1.27779
0.236331
-4.84221e-11
1.22075
0.231097
-4.70875e-11
1.16486
0.226207
-4.55357e-11
1.11004
0.221641
-4.44609e-11
1.05624
0.217377
-4.31296e-11
1.00337
0.213397
-4.22641e-11
0.951385
0.209686
-4.11168e-11
0.900219
0.206227
-4.04248e-11
0.849819
0.203008
-3.94359e-11
0.80013
0.200015
-3.889e-11
0.751102
0.197238
-3.80411e-11
0.702687
0.194666
-3.76202e-11
0.654839
0.19229
-3.69e-11
0.607513
0.190101
-3.65899e-11
0.560666
0.188093
-3.59971e-11
0.514257
0.186258
-3.57939e-11
0.468246
0.184589
-3.53379e-11
0.422595
0.183082
-3.5252e-11
0.377266
0.181731
-3.49682e-11
0.332223
0.180533
-3.50461e-11
0.287429
0.179483
-3.50275e-11
0.242851
0.178578
-3.53425e-11
0.198453
0.177815
-3.55982e-11
0.154201
0.177193
-3.58884e-11
0.110064
0.17671
-3.59751e-11
0.0660064
0.176364
-3.80672e-11
0.0219973
0.176157
-4.5951e-11
-0.0219958
0.176088
-7.05636e-11
-0.0660049
0.176157
-3.41615e-11
-0.110062
0.176364
-6.37617e-11
-0.1542
0.17671
-2.24242e-11
0.177193
-2.65794e-11
1.65106
2.52804
-8.87256e-10
1.94204
2.48929
-7.90279e-10
2.22716
2.44295
-6.30505e-10
2.50435
2.38871
-4.63967e-10
2.77089
2.3263
-5.71131e-10
3.02329
2.25548
-6.78795e-10
3.25723
2.17619
-7.50372e-10
3.46775
2.08869
-7.19436e-10
3.64958
1.99365
-6.72119e-10
3.7978
1.89236
-5.93876e-10
3.90867
1.78668
-5.62226e-10
3.98063
1.679
-5.61418e-10
4.01471
1.57188
-5.88568e-10
4.01434
1.46773
-6.50252e-10
3.98464
1.36843
-5.61674e-10
3.93133
1.27523
-5.44634e-10
3.85995
1.18874
-4.20407e-10
3.77535
1.10909
-2.7743e-10
3.68155
1.0361
-1.16757e-10
3.58173
0.969423
2.33142e-11
3.47838
0.908602
1.37664e-10
3.37334
0.853159
2.08103e-10
3.26799
0.802617
2.43234e-10
3.16332
0.756522
2.4459e-10
3.06005
0.714451
2.27246e-10
2.95867
0.676016
1.98164e-10
2.85952
0.640863
1.67087e-10
2.7628
0.60867
1.38768e-10
2.66863
0.57915
1.15911e-10
2.57707
0.552041
9.98481e-11
2.48813
0.527112
8.88015e-11
2.40176
0.504153
8.31033e-11
2.31791
0.482979
7.90024e-11
2.23651
0.463423
7.76464e-11
2.15747
0.445337
7.63735e-11
2.08069
0.428588
7.62324e-11
2.00607
0.413058
7.49378e-11
1.93352
0.39864
7.41637e-11
1.86293
0.38524
7.22677e-11
1.79421
0.372773
7.08094e-11
1.72726
0.361163
6.84873e-11
1.66198
0.35034
6.66251e-11
1.5983
0.340245
6.41738e-11
1.53611
0.33082
6.21855e-11
1.47534
0.322017
5.98117e-11
1.41591
0.31379
5.78575e-11
1.35775
0.306099
5.56616e-11
1.30078
0.298905
5.3814e-11
1.24493
0.292177
5.18278e-11
1.19015
0.285884
5.01073e-11
1.13636
0.279997
4.83247e-11
1.0835
0.274492
4.67329e-11
1.03153
0.269347
4.51402e-11
0.980392
0.264539
4.36718e-11
0.930027
0.260051
4.22551e-11
0.880389
0.255865
4.09065e-11
0.83143
0.251966
3.96523e-11
0.783106
0.248339
3.84189e-11
0.735374
0.24497
3.73149e-11
0.688191
0.241849
3.61934e-11
0.641517
0.238964
3.52278e-11
0.595312
0.236305
3.42141e-11
0.549541
0.233865
3.33728e-11
0.504165
0.231633
3.24597e-11
0.45915
0.229604
3.17278e-11
0.414461
0.227771
3.0911e-11
0.370064
0.226128
3.02821e-11
0.325926
0.22467
2.957e-11
0.282016
0.223393
2.90648e-11
0.238302
0.222292
2.85203e-11
0.194752
0.221365
2.83341e-11
0.151336
0.220609
2.83777e-11
0.108023
0.220022
2.92341e-11
0.064785
0.219603
2.94794e-11
0.0215905
0.219351
2.73962e-11
-0.0215892
0.219267
1.64025e-11
-0.0647837
0.219351
3.51434e-11
-0.108022
0.219603
3.16216e-11
-0.151334
0.220022
5.31236e-11
0.220609
6.36297e-11
1.39537
2.28119
-5.24735e-10
1.63673
2.24794
-4.20278e-10
1.87112
2.20857
-2.80384e-10
2.09678
2.16305
-1.62881e-10
2.31166
2.11142
-3.03887e-10
2.51337
2.05377
-4.89248e-10
2.69923
1.99033
-6.81873e-10
2.86642
1.9215
-8.2565e-10
3.01218
1.8479
-9.56067e-10
3.13412
1.77042
-1.03017e-09
3.23063
1.69018
-1.07871e-09
3.30113
1.60849
-1.06694e-09
3.34627
1.52674
-1.01864e-09
3.36779
1.4462
-9.20357e-10
3.36825
1.36798
-7.93093e-10
3.35059
1.29289
-6.44739e-10
3.31785
1.22148
-4.92643e-10
3.27287
1.15407
-3.55314e-10
3.2182
1.09077
-2.37625e-10
3.15603
1.03159
-1.54225e-10
3.0882
0.976426
-9.48341e-11
3.01625
0.925111
-7.18346e-11
2.94141
0.877454
-5.68078e-11
2.8647
0.83324
-6.3925e-11
2.7869
0.792247
-7.33277e-11
2.70867
0.754252
-8.74944e-11
2.63049
0.719036
-9.69508e-11
2.55277
0.686393
-1.05091e-10
2.4758
0.656122
-1.07295e-10
2.3998
0.628039
-1.07349e-10
2.32494
0.60197
-1.03765e-10
2.25134
0.577755
-9.93253e-11
2.17907
0.555246
-9.34616e-11
2.10819
0.534307
-8.74351e-11
2.03871
0.514813
-8.13282e-11
1.97065
0.496652
-7.58309e-11
1.90399
0.479718
-7.10008e-11
1.83871
0.463918
-6.66872e-11
1.77479
0.449164
-6.30847e-11
1.71218
0.435379
-5.98466e-11
1.65085
0.422491
-5.71917e-11
1.59076
0.410435
-5.47499e-11
1.53185
0.399151
-5.27429e-11
1.47409
0.388585
-5.08506e-11
1.41742
0.378687
-4.92443e-11
1.36179
0.369414
-4.78222e-11
1.30717
0.360723
-4.64902e-11
1.2535
0.352577
-4.5264e-11
1.20073
0.344943
-4.41497e-11
1.14883
0.337788
-4.31484e-11
1.09774
0.331083
-4.21802e-11
1.04743
0.324804
-4.1349e-11
0.997851
0.318926
-4.04956e-11
0.948965
0.313426
-3.98046e-11
0.900731
0.308285
-3.90376e-11
0.853112
0.303484
-3.84513e-11
0.806071
0.299007
-3.7752e-11
0.759571
0.294838
-3.7255e-11
0.713577
0.290964
-3.66187e-11
0.668056
0.28737
-3.61954e-11
0.622973
0.284046
-3.56131e-11
0.578298
0.280981
-3.52521e-11
0.533997
0.278165
-3.47269e-11
0.490041
0.27559
-3.44291e-11
0.446399
0.273246
-3.39757e-11
0.403042
0.271129
-3.37514e-11
0.35994
0.26923
-3.33955e-11
0.317066
0.267544
-3.32689e-11
0.274392
0.266067
-3.30582e-11
0.231889
0.264795
-3.30461e-11
0.189531
0.263723
-3.29516e-11
0.147292
0.262849
-3.28481e-11
0.105144
0.26217
-3.26001e-11
0.0630604
0.261686
-3.35678e-11
0.0210162
0.261395
-3.80216e-11
-0.021015
0.261299
-5.23374e-11
-0.0630592
0.261395
-3.17321e-11
-0.105142
0.261686
-5.29139e-11
-0.147291
0.26217
-2.94915e-11
0.262849
-3.48217e-11
1.1669
2.0762
-4.20561e-10
1.36639
2.04845
-4.20795e-10
1.55913
2.01582
-2.60667e-10
1.74378
1.9784
-2.31742e-10
1.91886
1.93634
-3.28016e-10
2.0828
1.88983
-4.45226e-10
2.23398
1.83915
-5.54617e-10
2.37078
1.7847
-6.33067e-10
2.49174
1.72694
-6.95661e-10
2.59566
1.66649
-7.17184e-10
2.68178
1.60406
-7.16061e-10
2.74987
1.54041
-6.69405e-10
2.80026
1.47634
-6.02154e-10
2.83384
1.41263
-5.02163e-10
2.85189
1.34993
-3.96835e-10
2.85597
1.28881
-2.82847e-10
2.84776
1.2297
-1.81796e-10
2.82891
1.17292
-9.23118e-11
2.80102
1.11867
-2.50525e-11
2.76554
1.06707
2.36221e-11
2.72379
1.01817
5.27214e-11
2.67694
0.971971
6.75142e-11
2.62597
0.92842
7.12023e-11
2.57177
0.887444
6.85395e-11
2.51506
0.848948
6.26099e-11
2.45649
0.812822
5.6166e-11
2.39658
0.778948
5.01873e-11
2.33577
0.747204
4.60762e-11
2.27442
0.717468
4.29512e-11
2.21284
0.689619
4.1856e-11
2.15128
0.663538
4.09131e-11
2.08992
0.639112
4.14299e-11
2.02893
0.616232
4.12473e-11
1.96844
0.594797
4.20749e-11
1.90855
0.57471
4.17595e-11
1.84932
0.555881
4.2275e-11
1.79081
0.538224
4.15598e-11
1.73307
0.521662
4.15837e-11
1.67611
0.506122
4.04786e-11
1.61995
0.491535
4.00608e-11
1.5646
0.47784
3.89362e-11
1.51006
0.464978
3.83434e-11
1.45632
0.452896
3.66729e-11
1.40336
0.441545
3.69149e-11
1.35116
0.430878
3.21566e-11
1.29972
0.420855
3.69334e-11
1.24901
0.411435
3.25194e-11
1.199
0.402585
3.2045e-11
1.14968
0.394269
3.08759e-11
1.101
0.386459
3.0122e-11
1.05296
0.379127
2.90208e-11
1.00552
0.372246
2.82996e-11
0.958653
0.365792
2.72253e-11
0.912334
0.359745
2.63674e-11
0.866536
0.354083
2.54395e-11
0.821231
0.348789
2.4815e-11
0.776393
0.343846
2.40083e-11
0.731995
0.339237
2.33013e-11
0.688011
0.334948
2.2527e-11
0.644414
0.330966
2.18818e-11
0.601181
0.32728
2.12453e-11
0.558284
0.323878
2.07114e-11
0.515699
0.32075
2.02049e-11
0.473402
0.317887
1.97168e-11
0.431368
0.31528
1.92671e-11
0.389573
0.312924
1.88206e-11
0.347994
0.310809
1.84499e-11
0.306606
0.308932
1.80723e-11
0.265387
0.307287
1.78171e-11
0.224313
0.305868
1.75793e-11
0.183363
0.304673
1.75964e-11
0.142512
0.303699
1.7768e-11
0.101739
0.302943
1.84919e-11
0.0610216
0.302404
1.91557e-11
0.0203372
0.30208
1.94098e-11
-0.0203362
0.301972
1.69569e-11
-0.0610206
0.30208
2.14783e-11
-0.101738
0.302404
2.26754e-11
-0.142511
0.302943
2.78798e-11
0.303699
3.49259e-11
0.973853
1.90573
1.19514e-10
1.1394
1.88291
1.60557e-10
1.29903
1.85619
1.6771e-10
1.45173
1.8257
1.87482e-10
1.59647
1.7916
9.15468e-11
1.73219
1.7541
-6.00396e-12
1.85788
1.71347
-9.16406e-11
1.97257
1.67
-1.46583e-10
2.07543
1.62408
-1.94125e-10
2.16582
1.57611
-2.14233e-10
2.24332
1.52656
-2.30558e-10
2.3078
1.47593
-2.20146e-10
2.35943
1.42472
-2.09343e-10
2.39865
1.3734
-1.78412e-10
2.42613
1.32244
-1.53594e-10
2.44272
1.27221
-1.19101e-10
2.44937
1.22306
-9.63867e-11
2.44705
1.17523
-7.22485e-11
2.43677
1.12895
-6.09458e-11
2.41948
1.08436
-5.11524e-11
2.3961
1.04156
-5.08941e-11
2.36746
1.00061
-5.11361e-11
2.33433
0.961547
-5.6294e-11
2.29741
0.924365
-5.99821e-11
2.25731
0.889044
-6.52138e-11
2.21459
0.855545
-6.79197e-11
2.16972
0.823816
-7.0764e-11
2.12313
0.793796
-7.1134e-11
2.07518
0.76542
-7.15697e-11
2.02618
0.738615
-7.01116e-11
1.97641
0.713308
-6.91205e-11
1.9261
0.689426
-6.68128e-11
1.87543
0.666896
-6.53264e-11
1.82459
0.645645
-6.289e-11
1.77369
0.625603
-6.14327e-11
1.72287
0.606705
-5.92089e-11
1.67221
0.588885
-5.7961e-11
1.62179
0.572082
-5.60273e-11
1.57167
0.556237
-5.49848e-11
1.52191
0.541297
-5.33145e-11
1.47254
0.52721
-5.24204e-11
1.4236
0.513926
-5.09672e-11
1.37509
0.5014
-5.01916e-11
1.32705
0.489591
-4.88992e-11
1.27947
0.478457
-4.81537e-11
1.23236
0.467962
-4.71125e-11
1.18572
0.458071
-4.64034e-11
1.13956
0.448751
-4.54228e-11
1.09385
0.439973
-4.47109e-11
1.0486
0.43171
-4.40011e-11
1.0038
0.423934
-4.28928e-11
0.959421
0.416621
-4.37614e-11
0.915463
0.40975
-4.30251e-11
0.871908
0.4033
-4.01458e-11
0.82874
0.397251
-3.85298e-11
0.785944
0.391586
-3.96312e-11
0.743502
0.386288
-3.95521e-11
0.701397
0.381342
-3.88144e-11
0.659611
0.376733
-3.82756e-11
0.618127
0.372451
-3.77667e-11
0.576926
0.368481
-3.72557e-11
0.53599
0.364814
-3.67748e-11
0.495301
0.361439
-3.62663e-11
0.45484
0.358347
-3.5806e-11
0.414589
0.355531
-3.52982e-11
0.37453
0.352983
-3.48785e-11
0.334643
0.350696
-3.44479e-11
0.294911
0.348664
-3.41383e-11
0.255315
0.346882
-3.38148e-11
0.215837
0.345346
-3.35934e-11
0.176459
0.344052
-3.33592e-11
0.137162
0.342996
-3.31468e-11
0.0979279
0.342177
-3.29612e-11
0.0587389
0.341592
-3.33606e-11
0.019577
0.341242
-3.52095e-11
-0.019576
0.341125
-4.06893e-11
-0.058738
0.341242
-3.3506e-11
-0.097927
0.341592
-4.6944e-11
-0.137161
0.342177
-3.90015e-11
0.342996
-4.49497e-11
0.814628
1.76328
2.68016e-11
0.952913
1.74462
-2.20929e-11
1.08627
1.72283
3.79485e-11
1.21394
1.69803
-9.36151e-13
1.33516
1.67037
-4.82016e-11
1.44922
1.64004
-8.52668e-11
1.55545
1.60725
-1.10805e-10
1.65321
1.57224
-1.2286e-10
1.74201
1.53528
-1.32987e-10
1.82143
1.49668
-1.32745e-10
1.89123
1.45676
-1.33838e-10
1.95131
1.41585
-1.24738e-10
2.00173
1.37429
-1.18509e-10
2.04273
1.33241
-1.03793e-10
2.07465
1.29051
-9.38533e-11
2.09798
1.24889
-7.84091e-11
2.11325
1.20778
-6.9067e-11
2.12108
1.16741
-5.66669e-11
2.12209
1.12794
-5.02193e-11
2.1169
1.08954
-4.17465e-11
2.10615
1.05231
-3.79243e-11
2.09042
1.01634
-3.21192e-11
2.07029
0.981676
-2.9491e-11
2.04629
0.948369
-2.47362e-11
2.0189
0.916433
-2.21964e-11
1.98858
0.88587
-1.76228e-11
1.95572
0.856669
-1.49007e-11
1.92071
0.828811
-1.04454e-11
1.88386
0.802266
-7.80949e-12
1.84548
0.777
-3.76401e-12
1.80581
0.752971
-1.56584e-12
1.7651
0.730137
1.8164e-12
1.72355
0.708453
3.39237e-12
1.68132
0.687872
6.03603e-12
1.63857
0.668347
6.99419e-12
1.59545
0.649832
8.96702e-12
1.55205
0.63228
9.4202e-12
1.50849
0.615647
1.08515e-11
1.46484
0.599888
1.0937e-11
1.42117
0.584961
1.19552e-11
1.37756
0.570827
1.17963e-11
1.33404
0.557446
1.25059e-11
1.29065
0.544781
1.21907e-11
1.24745
0.532798
1.26687e-11
1.20444
0.521462
1.22581e-11
1.16166
0.510743
1.25577e-11
1.11912
0.500611
1.20985e-11
1.07683
0.491039
1.22633e-11
1.03481
0.481999
1.17902e-11
0.99305
0.473467
1.18578e-11
0.951563
0.465421
1.13946e-11
0.910347
0.457837
1.14187e-11
0.869399
0.450698
1.09161e-11
0.828717
0.443982
1.07219e-11
0.788295
0.437673
1.02491e-11
0.748126
0.431755
1.02016e-11
0.708203
0.426211
9.85901e-12
0.668516
0.421028
9.74815e-12
0.629056
0.416193
9.42142e-12
0.589812
0.411694
9.29417e-12
0.550774
0.407519
9.0197e-12
0.51193
0.403658
8.8975e-12
0.473268
0.400101
8.67641e-12
0.434775
0.396841
8.56646e-12
0.396438
0.393868
8.39674e-12
0.358246
0.391176
8.29818e-12
0.320183
0.388758
8.18538e-12
0.282238
0.386609
8.11804e-12
0.244397
0.384724
8.08972e-12
0.206645
0.383098
8.1271e-12
0.16897
0.381727
8.2937e-12
0.131356
0.380609
8.5322e-12
0.0937916
0.379742
9.10721e-12
0.0562613
0.379123
9.94798e-12
0.0187517
0.378751
1.16946e-11
-0.0187509
0.378628
1.52455e-11
-0.0562605
0.378751
1.03089e-11
-0.0937908
0.379123
1.48418e-11
-0.131356
0.379742
9.04311e-12
0.380609
1.28623e-11
0.684356
1.64354
2.9455e-10
0.80068
1.6283
2.92556e-10
0.912996
1.61052
2.59964e-10
1.02073
1.5903
2.34706e-10
1.12332
1.56778
1.88742e-10
1.22025
1.54311
1.55448e-10
1.31105
1.51645
1.29981e-10
1.39529
1.488
1.16341e-10
1.47261
1.45796
1.01187e-10
1.54275
1.42654
9.26554e-11
1.60553
1.39399
7.86594e-11
1.66085
1.36053
7.08622e-11
1.70873
1.32641
5.68759e-11
1.74929
1.29185
4.92809e-11
1.78271
1.25709
3.56283e-11
1.80927
1.22233
2.82094e-11
1.82928
1.18776
1.53292e-11
1.84313
1.15356
8.33985e-12
1.85121
1.11987
-3.17314e-12
1.85393
1.08682
-9.17304e-12
1.85172
1.05452
-1.86936e-11
1.84501
1.02305
-2.31577e-11
1.83419
0.992489
-3.03532e-11
1.81968
0.962884
-3.30831e-11
1.80184
0.934275
-3.80768e-11
1.78102
0.906685
-3.92872e-11
1.75756
0.880128
-4.25405e-11
1.73176
0.854608
-4.26737e-11
1.70391
0.83012
-4.47404e-11
1.67426
0.806653
-4.42426e-11
1.64304
0.78419
-4.55794e-11
1.61047
0.762711
-4.47752e-11
1.57673
0.742191
-4.56805e-11
1.542
0.722602
-4.47558e-11
1.50643
0.703918
-4.53907e-11
1.47015
0.686106
-4.44338e-11
1.43329
0.669137
-4.48779e-11
1.39596
0.65298
-4.39249e-11
1.35825
0.637603
-4.42176e-11
1.32023
0.622976
-4.32848e-11
1.28199
0.609069
-4.34512e-11
1.24358
0.595852
-4.2549e-11
1.20507
0.583296
-4.26092e-11
1.16649
0.571375
-4.1745e-11
1.12789
0.560061
-4.17166e-11
1.0893
0.54933
-4.08974e-11
1.05076
0.539156
-4.07954e-11
1.01228
0.529517
-4.00235e-11
0.973888
0.520391
-3.98599e-11
0.935598
0.511757
-3.91365e-11
0.897425
0.503594
-3.8919e-11
0.859378
0.495885
-3.82405e-11
0.821464
0.488611
-3.79812e-11
0.78369
0.481756
-3.73494e-11
0.746058
0.475305
-3.70506e-11
0.70857
0.469243
-3.64506e-11
0.671226
0.463555
-3.61113e-11
0.634024
0.45823
-3.55433e-11
0.596963
0.453255
-3.51781e-11
0.560038
0.448619
-3.46426e-11
0.523244
0.444313
-3.42579e-11
0.486576
0.440326
-3.37546e-11
0.450027
0.436649
-3.33599e-11
0.413592
0.433276
-3.28928e-11
0.377262
0.430198
-3.2504e-11
0.34103
0.427408
-3.2083e-11
0.304887
0.424901
-3.17185e-11
0.268825
0.422671
-3.13586e-11
0.232835
0.420714
-3.10415e-11
0.196908
0.419025
-3.07442e-11
0.161033
0.417602
-3.05007e-11
0.125203
0.41644
-3.03054e-11
0.0894064
0.415538
-3.0268e-11
0.0536343
0.414895
-3.03649e-11
0.0178767
0.414509
-3.04368e-11
-0.017876
0.41438
-2.97297e-11
-0.0536335
0.414509
-3.20538e-11
-0.0894057
0.414895
-3.9355e-11
-0.125202
0.415538
-4.24669e-11
0.41644
-4.82902e-11
0.577863
1.54229
1.40877e-10
0.676362
1.5298
1.01482e-10
0.771641
1.51524
1.11452e-10
0.863255
1.49868
7.37493e-11
0.950785
1.48025
5.34403e-11
1.03384
1.46005
4.35829e-11
1.11207
1.43822
3.83572e-11
1.18516
1.41491
3.65156e-11
1.25285
1.39026
3.25354e-11
1.31495
1.36445
3.00921e-11
1.3713
1.33764
2.41277e-11
1.42182
1.31
2.02957e-11
1.46651
1.28172
1.31157e-11
1.5054
1.25296
8.89354e-12
1.5386
1.22389
1.74951e-12
1.56625
1.19468
-1.93627e-12
1.58856
1.16545
-8.12236e-12
1.60576
1.13636
-1.06667e-11
1.6181
1.10753
-1.53541e-11
1.62586
1.07906
-1.64637e-11
1.62933
1.05105
-1.94773e-11
1.6288
1.02358
-1.91642e-11
1.62456
0.996721
-2.06525e-11
1.61692
0.970528
-1.91819e-11
1.60615
0.945047
-1.95109e-11
1.59252
0.920313
-1.72818e-11
1.5763
0.896351
-1.68859e-11
1.55772
0.87318
-1.42979e-11
1.53703
0.850809
-1.35559e-11
1.51444
0.829243
-1.09193e-11
1.49015
0.80848
-1.00955e-11
1.46435
0.788516
-7.60446e-12
1.4372
0.76934
-6.84823e-12
1.40886
0.750939
-4.59933e-12
1.37948
0.7333
-3.97662e-12
1.34918
0.716404
-2.00323e-12
1.31809
0.700233
-1.53103e-12
1.2863
0.684767
1.67465e-13
1.25392
0.669987
4.96514e-13
1.22102
0.65587
1.93568e-12
1.1877
0.642396
2.1381e-12
1.154
0.629544
3.34044e-12
1.12001
0.617292
3.43557e-12
1.08576
0.605621
4.42482e-12
1.05132
0.594509
4.43261e-12
1.01671
0.583937
5.23398e-12
0.98198
0.573886
5.17374e-12
0.94716
0.564337
5.81265e-12
0.912277
0.555273
5.70347e-12
0.877357
0.546677
6.20502e-12
0.84242
0.538532
6.06478e-12
0.807483
0.530822
6.45349e-12
0.772561
0.523532
6.29793e-12
0.737668
0.51665
6.59486e-12
0.702812
0.51016
6.4387e-12
0.668003
0.504052
6.66635e-12
0.633247
0.498311
6.52136e-12
0.598548
0.492929
6.69524e-12
0.563909
0.487893
6.56877e-12
0.529334
0.483195
6.70259e-12
0.494822
0.478825
6.59991e-12
0.460373
0.474775
6.70348e-12
0.425986
0.471036
6.62705e-12
0.39166
0.467602
6.70738e-12
0.357392
0.464466
6.65721e-12
0.323179
0.461621
6.7213e-12
0.289016
0.459064
6.70514e-12
0.2549
0.456787
6.77535e-12
0.220826
0.454788
6.83223e-12
0.186789
0.453062
6.96554e-12
0.152784
0.451607
7.16425e-12
0.118804
0.450419
7.39874e-12
0.0848458
0.449497
7.75701e-12
0.0509017
0.448839
8.59977e-12
0.0169665
0.448444
1.1047e-11
-0.0169658
0.448313
1.76442e-11
-0.0509011
0.448444
7.82086e-12
-0.0848451
0.448839
1.45084e-11
-0.118804
0.449497
2.63697e-12
0.450419
5.66759e-12
0.490558
1.45617
1.74326e-10
0.57447
1.44589
1.71233e-10
0.655806
1.4339
1.48918e-10
0.734217
1.42027
1.3399e-10
0.809378
1.40509
1.15286e-10
0.880988
1.38844
1.03508e-10
0.948775
1.37044
9.4776e-11
1.0125
1.35118
9.00648e-11
1.07197
1.3308
8.37042e-11
1.12701
1.30941
7.91493e-11
1.17751
1.28714
7.13846e-11
1.22338
1.26412
6.56534e-11
1.26461
1.24049
5.66261e-11
1.30119
1.21638
5.02964e-11
1.33317
1.19191
4.09101e-11
1.36065
1.1672
3.47466e-11
1.38372
1.14238
2.58188e-11
1.40254
1.11754
2.04072e-11
1.41728
1.09279
1.24944e-11
1.42811
1.06823
8.16937e-12
1.43524
1.04392
1.54201e-12
1.43887
1.01995
-1.6045e-12
1.43921
0.996383
-6.92314e-12
1.43647
0.973267
-8.98607e-12
1.43087
0.950651
-1.31364e-11
1.4226
0.928575