/*--------------------------------*- C++ -*----------------------------------*\
| =========                 |                                                 |
| \\      /  F ield         | OpenFOAM: The Open Source CFD Toolbox           |
|  \\    /   O peration     | Version:  2306                                  |
|   \\  /    A nd           | Website:  www.openfoam.com                      |
|    \\/     M anipulation  |                                                 |
\*---------------------------------------------------------------------------*/
FoamFile
{
    version     2.0;
    format      ascii;
    arch        "LSB;label=32;scalar=64";
    class       volVectorField;
    location    "50";
    object      U;
}
// * * * * * * * * * * * * * * * * * * * * * * * * * * * * * * * * * * * * * //

dimensions      [0 1 -1 0 0 0 0];

internalField   nonuniform List<vector> 
14400
(
(0.0557921 0.491173 2.38156e-09)
(0.0680881 0.490744 1.08981e-09)
(0.0809993 0.490331 3.8297e-10)
(0.0946614 0.489975 -5.36968e-10)
(0.109264 0.489678 -1.63639e-09)
(0.125004 0.489227 -2.58746e-09)
(0.141837 0.487663 -4.3697e-09)
(0.160754 0.481492 -3.33317e-09)
(0.192752 0.456986 -7.01659e-09)
(0.254175 0.359809 -2.18711e-09)
(0.246078 0.0451665 -2.85125e-09)
(0.15421 0.0308011 -1.11239e-09)
(0.134134 0.0377895 -7.84041e-10)
(0.109909 0.0300433 -3.91666e-10)
(0.0899851 0.0189905 -1.41304e-10)
(0.0754408 0.0102322 -2.28797e-11)
(0.0655815 0.00511972 6.04184e-11)
(0.0588951 0.00233987 8.47674e-11)
(0.0540567 0.000838991 8.96193e-11)
(0.0503853 5.79718e-05 7.24881e-11)
(0.0474905 -0.000321013 5.06671e-11)
(0.045111 -0.00048064 2.87927e-11)
(0.0430758 -0.000523529 1.0369e-11)
(0.0412767 -0.000506618 -1.1175e-12)
(0.0396452 -0.00046124 -8.91163e-12)
(0.0381374 -0.000404412 -1.15106e-11)
(0.0367246 -0.00034518 -1.27927e-11)
(0.0353877 -0.000288187 -1.18678e-11)
(0.034114 -0.000235647 -1.12093e-11)
(0.0328945 -0.000188445 -9.96297e-12)
(0.0317226 -0.000146743 -9.37852e-12)
(0.0305936 -0.000110318 -8.66525e-12)
(0.0295038 -7.8758e-05 -8.46443e-12)
(0.0284503 -5.1574e-05 -8.15703e-12)
(0.0274306 -2.82601e-05 -8.14635e-12)
(0.0264426 -8.32986e-06 -7.99756e-12)
(0.0254844 8.66546e-06 -8.01192e-12)
(0.0245544 2.31299e-05 -7.89235e-12)
(0.023651 3.54206e-05 -7.87533e-12)
(0.0227727 4.58498e-05 -7.75033e-12)
(0.0219181 5.4688e-05 -7.70341e-12)
(0.0210861 6.21682e-05 -7.57476e-12)
(0.0202753 6.84902e-05 -7.51293e-12)
(0.0194845 7.38251e-05 -7.38772e-12)
(0.0187128 7.83188e-05 -7.32217e-12)
(0.0179589 8.20959e-05 -7.20406e-12)
(0.017222 8.52628e-05 -7.14009e-12)
(0.016501 8.79099e-05 -7.02972e-12)
(0.0157951 9.01146e-05 -6.969e-12)
(0.0151034 9.19429e-05 -6.86596e-12)
(0.0144251 9.3451e-05 -6.8087e-12)
(0.0137593 9.46871e-05 -6.7127e-12)
(0.0131054 9.56924e-05 -6.65885e-12)
(0.0124626 9.65023e-05 -6.57028e-12)
(0.0118303 9.71469e-05 -6.51994e-12)
(0.0112077 9.7652e-05 -6.43984e-12)
(0.0105942 9.80401e-05 -6.39337e-12)
(0.00998937 9.83299e-05 -6.32337e-12)
(0.00939249 9.8538e-05 -6.28132e-12)
(0.00880304 9.8678e-05 -6.22359e-12)
(0.0082205 9.8762e-05 -6.18667e-12)
(0.00764435 9.87998e-05 -6.14389e-12)
(0.00707411 9.87997e-05 -6.11298e-12)
(0.00650929 9.87684e-05 -6.08843e-12)
(0.00594944 9.87111e-05 -6.06461e-12)
(0.00539411 9.86316e-05 -6.06274e-12)
(0.00484288 9.85322e-05 -6.0482e-12)
(0.00429532 9.84138e-05 -6.07565e-12)
(0.00375102 9.82757e-05 -6.07687e-12)
(0.0032096 9.81163e-05 -6.14363e-12)
(0.00267067 9.79334e-05 -6.17535e-12)
(0.00213385 9.7726e-05 -6.29424e-12)
(0.00159876 9.74966e-05 -6.34826e-12)
(0.00106503 9.7256e-05 -6.51402e-12)
(0.000532284 9.70349e-05 -6.58254e-12)
(1.70373e-08 9.69348e-05 -6.61183e-12)
(-0.000532249 9.70342e-05 -7.44826e-12)
(-0.00106499 9.72546e-05 -1.65516e-12)
(-0.00159872 9.74945e-05 -1.95102e-11)
(-0.00213381 9.77233e-05 -4.55516e-13)
(0.0821868 0.44305 8.34848e-10)
(0.0999375 0.440238 5.35344e-10)
(0.118537 0.43662 1.91925e-10)
(0.138272 0.431917 -7.37066e-11)
(0.159535 0.425672 -5.89238e-10)
(0.182838 0.417112 -1.00721e-09)
(0.208812 0.404876 -1.61762e-09)
(0.238509 0.386561 -1.96934e-09)
(0.273367 0.358605 -2.00737e-09)
(0.305162 0.316994 -1.96284e-09)
(0.300151 0.257213 -1.44329e-09)
(0.26723 0.19516 -9.8091e-10)
(0.238576 0.138882 -5.32003e-10)
(0.21627 0.0985032 -2.84925e-10)
(0.197957 0.0715014 -6.361e-11)
(0.182114 0.0526084 1.73529e-11)
(0.168374 0.0389852 9.31999e-11)
(0.156656 0.0293207 1.06232e-10)
(0.146635 0.0226121 1.02787e-10)
(0.137932 0.0180079 8.26511e-11)
(0.130269 0.0148477 5.40311e-11)
(0.123439 0.0126546 3.23326e-11)
(0.117282 0.0111005 1.09094e-11)
(0.111677 0.00996751 2.0334e-13)
(0.106531 0.0091138 -8.50298e-12)
(0.101772 0.00844799 -1.03908e-11)
(0.0973463 0.00791121 -1.18799e-11)
(0.0932081 0.00746516 -1.05453e-11)
(0.089322 0.00708465 -1.00482e-11)
(0.0856585 0.00675279 -8.633e-12)
(0.0821933 0.00645811 -8.26761e-12)
(0.0789057 0.0061927 -7.51798e-12)
(0.0757783 0.00595099 -7.54333e-12)
(0.0727958 0.00572901 -7.25405e-12)
(0.0699453 0.00552388 -7.43246e-12)
(0.0672153 0.00533342 -7.31782e-12)
(0.0645955 0.00515599 -7.47204e-12)
(0.0620772 0.00499028 -7.389e-12)
(0.0596523 0.00483524 -7.46862e-12)
(0.0573135 0.00468999 -7.37934e-12)
(0.0550545 0.00455378 -7.39659e-12)
(0.0528693 0.00442597 -7.3025e-12)
(0.0507527 0.00430597 -7.28176e-12)
(0.0486997 0.00419328 -7.18982e-12)
(0.0467059 0.00408742 -7.14907e-12)
(0.0447673 0.00398797 -7.0626e-12)
(0.04288 0.00389455 -7.01179e-12)
(0.0410406 0.00380679 -6.93098e-12)
(0.0392459 0.00372437 -6.87508e-12)
(0.0374928 0.00364699 -6.79912e-12)
(0.0357787 0.00357436 -6.74084e-12)
(0.0341008 0.00350623 -6.66914e-12)
(0.0324569 0.00344235 -6.61036e-12)
(0.0308445 0.00338252 -6.54306e-12)
(0.0292617 0.00332652 -6.48555e-12)
(0.0277063 0.00327416 -6.42346e-12)
(0.0261764 0.00322528 -6.36901e-12)
(0.0246704 0.00317971 -6.31348e-12)
(0.0231864 0.00313731 -6.26391e-12)
(0.0217229 0.00309795 -6.21677e-12)
(0.0202784 0.00306149 -6.17396e-12)
(0.0188513 0.00302782 -6.13739e-12)
(0.0174402 0.00299684 -6.10335e-12)
(0.0160439 0.00296845 -6.08e-12)
(0.014661 0.00294256 -6.05688e-12)
(0.0132902 0.0029191 -6.05011e-12)
(0.0119304 0.00289797 -6.04071e-12)
(0.0105804 0.00287913 -6.05518e-12)
(0.00923902 0.0028625 -6.06483e-12)
(0.00790518 0.00284803 -6.10706e-12)
(0.00657778 0.00283567 -6.14508e-12)
(0.00525575 0.00282541 -6.22261e-12)
(0.00393802 0.00281724 -6.27907e-12)
(0.00262355 0.0028112 -6.37453e-12)
(0.00131136 0.00280739 -6.45518e-12)
(2.85616e-08 0.00280607 -6.47224e-12)
(-0.0013113 0.00280739 -7.0745e-12)
(-0.00262349 0.00281119 -3.19018e-12)
(-0.00393796 0.00281724 -1.50639e-11)
(-0.00525569 0.00282541 -4.83596e-12)
(0.0814165 0.397102 2.05616e-10)
(0.0983817 0.392986 1.54381e-10)
(0.115731 0.387732 5.34791e-11)
(0.133519 0.381027 2.92383e-12)
(0.151777 0.372411 -1.29912e-10)
(0.170479 0.36123 -2.09735e-10)
(0.189464 0.346603 -3.73091e-10)
(0.208316 0.327504 -4.27249e-10)
(0.226184 0.30313 -5.12819e-10)
(0.24103 0.273204 -4.84107e-10)
(0.249108 0.23793 -4.09038e-10)
(0.249755 0.201631 -3.13681e-10)
(0.245278 0.166477 -1.71875e-10)
(0.237149 0.134851 -9.67413e-11)
(0.226895 0.1084 4.89403e-12)
(0.215914 0.0875645 3.85927e-11)
(0.204901 0.0715732 7.32517e-11)
(0.194207 0.0594261 7.33008e-11)
(0.184033 0.0502442 6.33377e-11)
(0.174473 0.0432905 4.74343e-11)
(0.16556 0.037973 2.66178e-11)
(0.157285 0.0338402 1.29045e-11)
(0.149613 0.0305627 -6.32026e-13)
(0.142498 0.0279074 -6.32776e-12)
(0.135888 0.0257118 -1.10334e-11)
(0.129735 0.0238625 -1.12572e-11)
(0.12399 0.02228 -1.16182e-11)
(0.118613 0.0209072 -1.01864e-11)
(0.113564 0.0197027 -9.63591e-12)
(0.108809 0.0186356 -8.45312e-12)
(0.10432 0.0176825 -8.19697e-12)
(0.100069 0.0168252 -7.58817e-12)
(0.0960342 0.0160496 -7.65168e-12)
(0.0921946 0.0153444 -7.38862e-12)
(0.0885324 0.0147005 -7.54671e-12)
(0.085032 0.0141104 -7.40617e-12)
(0.0816792 0.0135679 -7.52319e-12)
(0.0784616 0.0130678 -7.4043e-12)
(0.0753681 0.0126058 -7.44956e-12)
(0.0723886 0.0121781 -7.32978e-12)
(0.0695144 0.0117814 -7.319e-12)
(0.0667372 0.011413 -7.20202e-12)
(0.0640499 0.0110704 -7.15771e-12)
(0.0614457 0.0107514 -7.0492e-12)
(0.0589187 0.0104542 -6.98739e-12)
(0.0564634 0.0101769 -6.8892e-12)
(0.0540747 0.00991821 -6.8188e-12)
(0.0517479 0.00967664 -6.73021e-12)
(0.0494789 0.00945101 -6.65581e-12)
(0.0472635 0.00924023 -6.57534e-12)
(0.0450983 0.0090433 -6.49964e-12)
(0.0429797 0.00885935 -6.42621e-12)
(0.0409045 0.00868756 -6.35115e-12)
(0.0388699 0.0085272 -6.28437e-12)
(0.0368731 0.0083776 -6.21178e-12)
(0.0349113 0.00823816 -6.15194e-12)
(0.0329823 0.00810834 -6.0836e-12)
(0.0310835 0.00798763 -6.03151e-12)
(0.029213 0.00787558 -5.96929e-12)
(0.0273684 0.00777178 -5.92616e-12)
(0.025548 0.00767586 -5.87197e-12)
(0.0237498 0.00758746 -5.83937e-12)
(0.021972 0.00750629 -5.79527e-12)
(0.0202128 0.00743206 -5.77523e-12)
(0.0184706 0.00736452 -5.74359e-12)
(0.0167439 0.00730344 -5.73889e-12)
(0.015031 0.00724862 -5.72313e-12)
(0.0133304 0.00719988 -5.73779e-12)
(0.0116407 0.00715706 -5.74486e-12)
(0.00996041 0.00712002 -5.78402e-12)
(0.0082882 0.00708867 -5.82603e-12)
(0.00662265 0.00706292 -5.89594e-12)
(0.0049624 0.00704275 -5.95917e-12)
(0.00330611 0.00702818 -6.05323e-12)
(0.0016526 0.0070193 -6.11983e-12)
(3.03829e-08 0.00701629 -6.11816e-12)
(-0.00165254 0.00701929 -6.9216e-12)
(-0.00330605 0.00702818 -2.04831e-12)
(-0.00496233 0.00704275 -1.7021e-11)
(-0.00662259 0.00706291 -1.74051e-12)
(0.0763212 0.355405 1.12242e-10)
(0.0918533 0.350747 8.64022e-11)
(0.1075 0.344941 3.72912e-11)
(0.123233 0.337776 2.03324e-11)
(0.138977 0.32897 -2.46734e-11)
(0.154586 0.318167 -4.68015e-11)
(0.1698 0.304958 -9.74406e-11)
(0.184194 0.288959 -1.0982e-10)
(0.197181 0.269939 -1.30278e-10)
(0.208032 0.247955 -1.21392e-10)
(0.215913 0.223483 -9.28878e-11)
(0.220274 0.197879 -6.53691e-11)
(0.221087 0.172591 -1.2933e-11)
(0.218715 0.149109 1.17213e-11)
(0.213863 0.128457 4.79174e-11)
(0.207319 0.110999 5.6484e-11)
(0.199777 0.096571 6.31349e-11)
(0.19175 0.0847599 5.66448e-11)
(0.183592 0.0751038 4.52061e-11)
(0.175542 0.0671784 3.35301e-11)
(0.167747 0.0606227 2.04444e-11)
(0.160291 0.055145 1.20491e-11)
(0.15321 0.0505177 4.53932e-12)
(0.146513 0.0465667 1.19957e-12)
(0.14019 0.0431596 -1.22614e-12)
(0.134223 0.0401953 -1.61077e-12)
(0.128589 0.037596 -1.91589e-12)
(0.123264 0.0353006 -1.50966e-12)
(0.118225 0.0332611 -1.51164e-12)
(0.113446 0.0314385 -1.28321e-12)
(0.108908 0.0298017 -1.5075e-12)
(0.104589 0.0283249 -1.56107e-12)
(0.100472 0.0269869 -1.93157e-12)
(0.0965398 0.0257701 -2.1089e-12)
(0.0927773 0.0246598 -2.4674e-12)
(0.089171 0.0236435 -2.64414e-12)
(0.0857084 0.0227108 -2.91503e-12)
(0.0823783 0.0218527 -3.04785e-12)
(0.0791706 0.0210614 -3.22607e-12)
(0.0760761 0.0203302 -3.31662e-12)
(0.0730864 0.0196535 -3.42416e-12)
(0.0701939 0.0190262 -3.48573e-12)
(0.0673915 0.0184438 -3.5457e-12)
(0.064673 0.0179025 -3.58905e-12)
(0.0620324 0.0173988 -3.61783e-12)
(0.0594643 0.0169298 -3.64904e-12)
(0.0569638 0.0164927 -3.65678e-12)
(0.0545263 0.016085 -3.67888e-12)
(0.0521475 0.0157047 -3.67186e-12)
(0.0498236 0.0153499 -3.68664e-12)
(0.0475507 0.0150187 -3.66917e-12)
(0.0453256 0.0147095 -3.67815e-12)
(0.043145 0.0144211 -3.65363e-12)
(0.0410059 0.0141521 -3.65846e-12)
(0.0389055 0.0139013 -3.62982e-12)
(0.0368412 0.0136678 -3.63228e-12)
(0.0348104 0.0134505 -3.60218e-12)
(0.0328108 0.0132485 -3.60422e-12)
(0.0308401 0.0130612 -3.57512e-12)
(0.0288962 0.0128878 -3.57867e-12)
(0.0269772 0.0127276 -3.55287e-12)
(0.0250809 0.0125801 -3.55994e-12)
(0.0232057 0.0124447 -3.53972e-12)
(0.0213497 0.012321 -3.55246e-12)
(0.0195112 0.0122085 -3.54019e-12)
(0.0176885 0.0121069 -3.561e-12)
(0.0158801 0.0120158 -3.55907e-12)
(0.0140844 0.0119349 -3.59052e-12)
(0.0122998 0.0118639 -3.60117e-12)
(0.010525 0.0118027 -3.64477e-12)
(0.0087584 0.011751 -3.66722e-12)
(0.00699863 0.0117088 -3.72007e-12)
(0.00524428 0.0116759 -3.73541e-12)
(0.00349399 0.0116523 -3.77055e-12)
(0.00174654 0.011638 -3.77509e-12)
(2.9499e-08 0.0116333 -3.75712e-12)
(-0.00174648 0.011638 -4.04103e-12)
(-0.00349393 0.0116523 -1.97225e-12)
(-0.00524422 0.0116759 -8.27121e-12)
(-0.00699857 0.0117088 -3.82484e-12)
(0.0687667 0.316009 6.69295e-11)
(0.0824564 0.311268 5.68849e-11)
(0.0960689 0.305472 2.3395e-11)
(0.109542 0.298502 1.40381e-11)
(0.122776 0.290211 -4.30477e-12)
(0.135624 0.280436 -1.49372e-11)
(0.14787 0.269023 -3.21561e-11)
(0.159225 0.255868 -3.85715e-11)
(0.169332 0.24099 -4.35371e-11)
(0.177796 0.224577 -4.16586e-11)
(0.184231 0.207027 -3.07153e-11)
(0.188364 0.188985 -2.27116e-11)
(0.190133 0.171192 -5.88907e-12)
(0.189696 0.154344 1.85079e-12)
(0.187401 0.138932 1.1902e-11)
(0.183682 0.125183 1.42651e-11)
(0.178965 0.113107 1.39722e-11)
(0.173609 0.102588 1.15348e-11)
(0.16789 0.0934553 6.05278e-12)
(0.162012 0.0855243 2.57409e-12)
(0.156116 0.0786189 -2.2023e-12)
(0.150299 0.0725828 -4.01826e-12)
(0.14462 0.0672826 -6.09704e-12)
(0.139118 0.0626071 -6.09671e-12)
(0.13381 0.0584638 -6.32889e-12)
(0.128705 0.0547765 -5.57023e-12)
(0.123804 0.0514816 -5.28721e-12)
(0.119104 0.048526 -4.60869e-12)
(0.114598 0.0458651 -4.48342e-12)
(0.110276 0.0434613 -4.13443e-12)
(0.106131 0.0412828 -4.24775e-12)
(0.102151 0.0393023 -4.14052e-12)
(0.0983266 0.0374968 -4.3585e-12)
(0.0946491 0.0358463 -4.34931e-12)
(0.0911086 0.0343339 -4.55321e-12)
(0.0876964 0.0329447 -4.55558e-12)
(0.0844041 0.031666 -4.69891e-12)
(0.0812239 0.0304867 -4.68558e-12)
(0.0781484 0.029397 -4.76724e-12)
(0.0751707 0.0283886 -4.73816e-12)
(0.0722845 0.027454 -4.77336e-12)
(0.0694838 0.0265865 -4.73551e-12)
(0.0667631 0.0257805 -4.73968e-12)
(0.0641172 0.0250307 -4.69842e-12)
(0.0615414 0.0243326 -4.68256e-12)
(0.0590311 0.0236821 -4.64064e-12)
(0.0565821 0.0230756 -4.61175e-12)
(0.0541906 0.0225098 -4.57025e-12)
(0.0518529 0.0219817 -4.53291e-12)
(0.0495656 0.0214888 -4.49245e-12)
(0.0473254 0.0210286 -4.44992e-12)
(0.0451295 0.020599 -4.41115e-12)
(0.0429748 0.0201981 -4.36611e-12)
(0.0408588 0.0198241 -4.32991e-12)
(0.0387788 0.0194754 -4.28478e-12)
(0.0367326 0.0191506 -4.25228e-12)
(0.0347178 0.0188484 -4.20921e-12)
(0.0327323 0.0185675 -4.18173e-12)
(0.030774 0.0183069 -4.14281e-12)
(0.028841 0.0180657 -4.1218e-12)
(0.0269313 0.0178429 -4.08902e-12)
(0.0250433 0.0176377 -4.07604e-12)
(0.023175 0.0174494 -4.05148e-12)
(0.021325 0.0172774 -4.04841e-12)
(0.0194916 0.017121 -4.03454e-12)
(0.0176732 0.0169797 -4.04388e-12)
(0.0158682 0.0168532 -4.04412e-12)
(0.0140754 0.0167408 -4.06913e-12)
(0.0122932 0.0166424 -4.0892e-12)
(0.0105201 0.0165575 -4.1331e-12)
(0.00875494 0.016486 -4.18055e-12)
(0.00699625 0.0164276 -4.24497e-12)
(0.0052427 0.0163822 -4.30306e-12)
(0.00349303 0.0163498 -4.38001e-12)
(0.00174609 0.0163303 -4.41803e-12)
(2.85383e-08 0.0163238 -4.41483e-12)
(-0.00174603 0.0163303 -5.05717e-12)
(-0.00349297 0.0163498 -1.13794e-12)
(-0.00524265 0.0163822 -1.31049e-11)
(-0.00699619 0.0164276 -4.15377e-13)
(0.0596995 0.281785 7.76552e-11)
(0.0713455 0.277403 6.83741e-11)
(0.0827945 0.272134 4.19081e-11)
(0.0939757 0.265926 3.89098e-11)
(0.104795 0.258725 3.29305e-11)
(0.115131 0.250483 3.00634e-11)
(0.124828 0.24117 2.46686e-11)
(0.133699 0.230796 2.27582e-11)
(0.141536 0.219436 1.9951e-11)
(0.14813 0.207246 1.96125e-11)
(0.153298 0.194475 2.01309e-11)
(0.156928 0.181449 2.06872e-11)
(0.159008 0.168525 2.21998e-11)
(0.159633 0.156037 2.21359e-11)
(0.158981 0.144242 2.12605e-11)
(0.157278 0.133297 1.93999e-11)
(0.154752 0.123268 1.67338e-11)
(0.151613 0.114154 1.39188e-11)
(0.148037 0.105911 1.0826e-11)
(0.144168 0.0984741 8.47402e-12)
(0.140116 0.0917701 6.45751e-12)
(0.135965 0.0857256 5.1421e-12)
(0.131779 0.0802709 4.29883e-12)
(0.127603 0.0753422 3.77108e-12)
(0.123471 0.070882 3.52479e-12)
(0.119406 0.0668391 3.29611e-12)
(0.115425 0.0631677 3.10913e-12)
(0.111536 0.0598277 2.85043e-12)
(0.107748 0.0567831 2.53294e-12)
(0.104062 0.0540027 2.19127e-12)
(0.100481 0.0514586 1.78501e-12)
(0.0970026 0.0491264 1.42442e-12)
(0.0936257 0.0469844 1.01342e-12)
(0.0903476 0.0450137 6.85394e-13)
(0.0871648 0.0431974 3.54237e-13)
(0.0840738 0.0415207 1.00923e-13)
(0.0810707 0.0399705 -1.54256e-13)
(0.0781515 0.0385351 -3.52358e-13)
(0.0753122 0.0372042 -5.39301e-13)
(0.0725489 0.0359687 -6.91582e-13)
(0.0698578 0.0348204 -8.25253e-13)
(0.0672349 0.0337521 -9.44561e-13)
(0.0646769 0.0327571 -1.03918e-12)
(0.06218 0.0318297 -1.13478e-12)
(0.0597411 0.0309646 -1.20084e-12)
(0.0573569 0.0301573 -1.27859e-12)
(0.0550243 0.0294033 -1.32339e-12)
(0.0527404 0.028699 -1.38719e-12)
(0.0505025 0.0280409 -1.41599e-12)
(0.0483079 0.0274259 -1.46867e-12)
(0.046154 0.0268511 -1.48556e-12)
(0.0440386 0.026314 -1.52956e-12)
(0.0419592 0.0258124 -1.53796e-12)
(0.0399137 0.025344 -1.57543e-12)
(0.0379001 0.024907 -1.57822e-12)
(0.0359162 0.0244997 -1.61127e-12)
(0.0339603 0.0241204 -1.61105e-12)
(0.0320304 0.0237678 -1.64162e-12)
(0.0301248 0.0234405 -1.64063e-12)
(0.0282418 0.0231373 -1.67054e-12)
(0.0263799 0.0228572 -1.67085e-12)
(0.0245373 0.0225991 -1.70183e-12)
(0.0227127 0.0223623 -1.7054e-12)
(0.0209044 0.0221458 -1.73917e-12)
(0.0191112 0.0219491 -1.74798e-12)
(0.0173316 0.0217713 -1.78642e-12)
(0.0155642 0.021612 -1.80232e-12)
(0.0138078 0.0214706 -1.84715e-12)
(0.012061 0.0213468 -1.8708e-12)
(0.0103226 0.0212401 -1.9221e-12)
(0.00859138 0.0211502 -1.94933e-12)
(0.00686606 0.0210768 -2.00225e-12)
(0.00514545 0.0210199 -2.01438e-12)
(0.00342837 0.0209793 -2.04609e-12)
(0.0017138 0.0209548 -2.03676e-12)
(2.54227e-08 0.0209467 -2.03248e-12)
(-0.00171375 0.0209548 -2.15733e-12)
(-0.00342832 0.0209793 -1.06797e-12)
(-0.0051454 0.0210199 -4.36721e-12)
(-0.00686601 0.0210768 -2.46327e-12)
(0.0505253 0.253238 7.0072e-11)
(0.0602259 0.249416 5.96218e-11)
(0.0696818 0.244874 4.03038e-11)
(0.0788292 0.2396 3.86535e-11)
(0.0875928 0.233587 3.64571e-11)
(0.0958842 0.226837 3.47086e-11)
(0.103602 0.219368 3.19437e-11)
(0.110636 0.21122 2.97394e-11)
(0.116872 0.202468 2.63474e-11)
(0.122204 0.193222 2.38477e-11)
(0.12655 0.18363 2.04877e-11)
(0.129863 0.173868 1.80007e-11)
(0.132145 0.164124 1.49635e-11)
(0.133446 0.154571 1.25949e-11)
(0.133854 0.145353 9.85948e-12)
(0.133482 0.136575 7.74387e-12)
(0.132453 0.128302 5.56025e-12)
(0.130884 0.120562 3.98855e-12)
(0.128883 0.113363 2.62048e-12)
(0.126545 0.106691 1.76229e-12)
(0.123949 0.100527 1.19734e-12)
(0.121162 0.0948398 9.32404e-13)
(0.118239 0.0896001 8.22344e-13)
(0.115222 0.084775 8.1455e-13)
(0.112149 0.0803326 8.08593e-13)
(0.109048 0.0762421 8.22365e-13)
(0.10594 0.0724741 7.16436e-13)
(0.102843 0.0690012 6.46343e-13)
(0.099771 0.0657981 4.24983e-13)
(0.0967338 0.0628412 2.86135e-13)
(0.093739 0.060109 2.55934e-15)
(0.0907922 0.057582 -1.68259e-13)
(0.0878971 0.0552424 -4.46285e-13)
(0.0850563 0.053074 -5.91709e-13)
(0.0822711 0.0510622 -8.13223e-13)
(0.0795419 0.0491938 -9.30582e-13)
(0.0768688 0.0474569 -1.10746e-12)
(0.0742511 0.0458405 -1.20025e-12)
(0.0716877 0.0443351 -1.33205e-12)
(0.0691774 0.0429317 -1.40363e-12)
(0.0667186 0.0416224 -1.49914e-12)
(0.0643097 0.0404001 -1.55478e-12)
(0.0619489 0.0392582 -1.62234e-12)
(0.0596343 0.0381908 -1.666e-12)
(0.0573641 0.0371925 -1.71196e-12)
(0.0551364 0.0362585 -1.74651e-12)
(0.0529493 0.0353844 -1.77594e-12)
(0.0508009 0.0345662 -1.80197e-12)
(0.0486893 0.0338002 -1.81907e-12)
(0.0466129 0.0330831 -1.8391e-12)
(0.0445697 0.0324119 -1.84699e-12)
(0.0425581 0.0317838 -1.86248e-12)
(0.0405765 0.0311963 -1.86396e-12)
(0.038623 0.0306471 -1.87652e-12)
(0.0366963 0.0301342 -1.87408e-12)
(0.0347947 0.0296555 -1.88526e-12)
(0.0329168 0.0292094 -1.88116e-12)
(0.0310611 0.0287942 -1.89245e-12)
(0.0292261 0.0284086 -1.88844e-12)
(0.0274106 0.0280511 -1.90098e-12)
(0.0256131 0.0277206 -1.89859e-12)
(0.0238324 0.0274159 -1.91363e-12)
(0.0220672 0.0271361 -1.91445e-12)
(0.0203162 0.0268803 -1.93335e-12)
(0.0185783 0.0266477 -1.93913e-12)
(0.0168524 0.0264374 -1.96335e-12)
(0.0151371 0.026249 -1.97619e-12)
(0.0134314 0.0260817 -2.00747e-12)
(0.0117342 0.0259352 -2.03073e-12)
(0.0100443 0.0258089 -2.07047e-12)
(0.00836074 0.0257026 -2.10823e-12)
(0.00668238 0.0256159 -2.15638e-12)
(0.00500816 0.0255486 -2.19699e-12)
(0.00333707 0.0255005 -2.24953e-12)
(0.00166821 0.0254717 -2.27051e-12)
(2.33942e-08 0.0254621 -2.27414e-12)
(-0.00166817 0.0254717 -2.68081e-12)
(-0.00333703 0.0255005 -2.46637e-13)
(-0.00500812 0.0255486 -7.69161e-12)
(-0.00668233 0.0256159 5.18586e-13)
(0.0422897 0.229544 4.11135e-11)
(0.0503273 0.226327 3.88957e-11)
(0.058123 0.222535 2.77862e-11)
(0.0656254 0.218175 2.81682e-11)
(0.0727785 0.213259 2.76931e-11)
(0.0795216 0.207807 2.73504e-11)
(0.0857905 0.201848 2.59098e-11)
(0.0915201 0.195427 2.49577e-11)
(0.0966481 0.188601 2.25396e-11)
(0.10112 0.181447 2.11431e-11)
(0.104896 0.174056 1.83718e-11)
(0.107955 0.166528 1.68778e-11)
(0.1103 0.158968 1.43805e-11)
(0.111955 0.151475 1.30464e-11)
(0.112965 0.144137 1.11711e-11)
(0.113388 0.137024 1.01427e-11)
(0.113289 0.130187 8.97826e-12)
(0.112736 0.123662 8.29737e-12)
(0.111794 0.117469 7.73136e-12)
(0.110523 0.111619 7.32836e-12)
(0.108978 0.106111 7.11953e-12)
(0.10721 0.10094 6.85426e-12)
(0.105259 0.0960964 6.74828e-12)
(0.103164 0.0915666 6.48845e-12)
(0.100957 0.0873353 6.32483e-12)
(0.0986641 0.0833864 6.00863e-12)
(0.0963084 0.0797031 5.74296e-12)
(0.093909 0.0762685 5.37734e-12)
(0.0914817 0.0730664 5.0419e-12)
(0.0890399 0.0700807 4.665e-12)
(0.0865941 0.0672964 4.31312e-12)
(0.0841532 0.0646991 3.95994e-12)
(0.0817242 0.0622753 3.63224e-12)
(0.0793127 0.0600125 3.32209e-12)
(0.0769231 0.0578989 3.03757e-12)
(0.0745587 0.0559238 2.77231e-12)
(0.072222 0.054077 2.53404e-12)
(0.069915 0.0523494 2.30898e-12)
(0.0676388 0.0507324 2.11279e-12)
(0.0653943 0.0492183 1.92207e-12)
(0.0631817 0.0477999 1.76218e-12)
(0.0610012 0.0464705 1.59951e-12)
(0.0588526 0.0452241 1.46934e-12)
(0.0567354 0.0440552 1.32877e-12)
(0.0546491 0.0429587 1.2277e-12)
(0.052593 0.0419299 1.09005e-12)
(0.0505662 0.0409646 1.01002e-12)
(0.0485679 0.0400587 9.07169e-13)
(0.0465971 0.0392088 8.38298e-13)
(0.0446528 0.0384115 7.46218e-13)
(0.042734 0.0376637 6.9026e-13)
(0.0408396 0.0369627 6.09204e-13)
(0.0389686 0.036306 5.63725e-13)
(0.0371198 0.0356911 4.91701e-13)
(0.0352922 0.0351159 4.54749e-13)
(0.0334848 0.0345785 3.89533e-13)
(0.0316964 0.034077 3.55906e-13)
(0.029926 0.0336098 2.93889e-13)
(0.0281725 0.0331753 2.63574e-13)
(0.0264349 0.0327722 2.07558e-13)
(0.0247123 0.0323992 1.82076e-13)
(0.0230035 0.0320551 1.31404e-13)
(0.0213076 0.0317388 1.08522e-13)
(0.0196235 0.0314495 5.97113e-14)
(0.0179504 0.0311862 3.59319e-14)
(0.0162873 0.0309482 -1.19556e-14)
(0.0146332 0.0307347 -3.62866e-14)
(0.0129871 0.0305453 -8.30894e-14)
(0.0113482 0.0303792 -1.07026e-13)
(0.00971555 0.0302361 -1.51761e-13)
(0.00808821 0.0301155 -1.70296e-13)
(0.00646529 0.0300172 -2.08485e-13)
(0.00484589 0.0299409 -2.10856e-13)
(0.00322914 0.0298865 -2.2797e-13)
(0.00161431 0.0298538 -2.1528e-13)
(2.034e-08 0.0298429 -2.22553e-13)
(-0.00161427 0.0298538 -1.83062e-13)
(-0.0032291 0.0298865 -2.47311e-13)
(-0.00484585 0.0299409 -6.86143e-14)
(-0.00646525 0.0300172 -1.31073e-12)
(0.035309 0.209867 3.95528e-11)
(0.0419859 0.207211 3.1151e-11)
(0.048448 0.204097 2.35194e-11)
(0.0546558 0.200537 2.32231e-11)
(0.0605681 0.19655 2.28429e-11)
(0.0661435 0.192159 2.24128e-11)
(0.0713404 0.187393 2.13569e-11)
(0.076119 0.182288 2.0462e-11)
(0.0804433 0.17689 1.87271e-11)
(0.0842832 0.17125 1.74758e-11)
(0.0876171 0.165427 1.5506e-11)
(0.090434 0.159484 1.41793e-11)
(0.0927347 0.153485 1.24239e-11)
(0.0945318 0.147492 1.12397e-11)
(0.0958478 0.141559 9.94465e-12)
(0.0967134 0.135737 9.00918e-12)
(0.0971648 0.130065 8.20105e-12)
(0.0972408 0.124573 7.51486e-12)
(0.0969811 0.119285 7.07026e-12)
(0.0964248 0.114216 6.56506e-12)
(0.0956092 0.109376 6.30923e-12)
(0.094569 0.10477 5.89883e-12)
(0.0933361 0.100397 5.68813e-12)
(0.0919398 0.0962557 5.3104e-12)
(0.0904058 0.0923403 5.07037e-12)
(0.0887574 0.0886441 4.7021e-12)
(0.0870149 0.0851589 4.42075e-12)
(0.0851963 0.0818756 4.06642e-12)
(0.083317 0.0787848 3.76483e-12)
(0.0813904 0.0758767 3.43867e-12)
(0.0794281 0.0731414 3.1439e-12)
(0.0774401 0.0705693 2.85599e-12)
(0.0754347 0.068151 2.5868e-12)
(0.0734189 0.0658774 2.33973e-12)
(0.0713989 0.0637397 2.10462e-12)
(0.0693795 0.0617298 1.89517e-12)
(0.067365 0.0598397 1.6949e-12)
(0.0653586 0.058062 1.51776e-12)
(0.0633632 0.0563899 1.35006e-12)
(0.0613809 0.0548169 1.19997e-12)
(0.0594135 0.0533367 1.06088e-12)
(0.0574624 0.0519439 9.3328e-13)
(0.0555285 0.0506332 8.18829e-13)
(0.0536126 0.0493995 7.09829e-13)
(0.0517151 0.0482385 6.16613e-13)
(0.0498363 0.0471458 5.23058e-13)
(0.0479762 0.0461175 4.4777e-13)
(0.0461349 0.04515 3.68549e-13)
(0.044312 0.04424 3.07921e-13)
(0.0425073 0.0433843 2.40035e-13)
(0.0407205 0.0425801 1.91637e-13)
(0.038951 0.0418246 1.33506e-13)
(0.0371984 0.0411155 9.58814e-14)
(0.035462 0.0404505 4.34883e-14)
(0.0337414 0.0398273 6.56865e-15)
(0.0320358 0.0392442 -4.25787e-14)
(0.0303446 0.0386993 -6.70879e-14)
(0.0286672 0.038191 -1.09641e-13)
(0.0270028 0.0377178 -1.35317e-13)
(0.0253506 0.0372782 -1.75162e-13)
(0.0237101 0.036871 -1.96587e-13)
(0.0220805 0.036495 -2.32042e-13)
(0.0204611 0.0361491 -2.50522e-13)
(0.018851 0.0358325 -2.83251e-13)
(0.0172497 0.0355442 -3.00133e-13)
(0.0156563 0.0352833 -3.3123e-13)
(0.0140702 0.0350493 -3.49411e-13)
(0.0124905 0.0348415 -3.81714e-13)
(0.0109166 0.0346592 -4.02976e-13)
(0.00934778 0.0345022 -4.35919e-13)
(0.00778325 0.0343698 -4.62149e-13)
(0.00622231 0.0342619 -4.95651e-13)
(0.00466423 0.0341782 -5.22498e-13)
(0.00310831 0.0341184 -5.58011e-13)
(0.00155396 0.0340826 -5.73495e-13)
(1.85098e-08 0.0340706 -5.88623e-13)
(-0.00155392 0.0340826 -8.04878e-13)
(-0.00310827 0.0341184 3.34521e-13)
(-0.00466419 0.0341782 -3.19929e-12)
(-0.00622227 0.0342619 1.13481e-12)
(0.0295395 0.19347 1.21909e-11)
(0.0351175 0.191297 1.21179e-11)
(0.0405152 0.188756 9.98124e-12)
(0.045702 0.185862 1.08164e-11)
(0.050648 0.182632 1.10782e-11)
(0.0553237 0.179087 1.13092e-11)
(0.0597011 0.175253 1.10055e-11)
(0.0637543 0.171158 1.09401e-11)
(0.0674608 0.166836 1.02757e-11)
(0.0708019 0.162323 1.00774e-11)
(0.0737645 0.157658 9.31571e-12)
(0.0763417 0.152885 9.11351e-12)
(0.0785328 0.148045 8.46346e-12)
(0.0803438 0.143178 8.32256e-12)
(0.0817866 0.138324 7.88021e-12)
(0.0828778 0.133516 7.80627e-12)
(0.0836381 0.128784 7.55898e-12)
(0.0840904 0.124154 7.51672e-12)
(0.0842595 0.119647 7.38735e-12)
(0.0841703 0.115278 7.32911e-12)
(0.083848 0.11106 7.23047e-12)
(0.0833169 0.107002 7.12156e-12)
(0.0826 0.103107 6.99383e-12)
(0.0817193 0.09938 6.82405e-12)
(0.0806949 0.0958205 6.64549e-12)
(0.0795455 0.0924274 6.42589e-12)
(0.078288 0.0891979 6.20338e-12)
(0.0769379 0.0861283 5.95507e-12)
(0.0755089 0.0832139 5.70814e-12)
(0.0740134 0.0804493 5.45179e-12)
(0.0724623 0.077829 5.20021e-12)
(0.0708654 0.0753469 4.95056e-12)
(0.0692311 0.0729971 4.70857e-12)
(0.067567 0.0707733 4.47381e-12)
(0.0658795 0.0686695 4.24953e-12)
(0.0641744 0.0666799 4.03304e-12)
(0.0624565 0.0647985 3.83008e-12)
(0.0607301 0.06302 3.63259e-12)
(0.0589988 0.0613388 3.45186e-12)
(0.0572656 0.0597499 3.27281e-12)
(0.0555331 0.0582485 3.11374e-12)
(0.0538036 0.0568299 2.95208e-12)
(0.0520789 0.0554897 2.81334e-12)
(0.0503605 0.0542238 2.66783e-12)
(0.0486496 0.0530284 2.54766e-12)
(0.0469472 0.0518999 2.41698e-12)
(0.045254 0.0508347 2.31348e-12)
(0.0435707 0.0498297 2.19624e-12)
(0.0418976 0.048882 2.10737e-12)
(0.0402351 0.0479886 2.00211e-12)
(0.0385833 0.047147 1.92583e-12)
(0.0369423 0.0463548 1.83114e-12)
(0.035312 0.0456097 1.76553e-12)
(0.0336923 0.0449095 1.68005e-12)
(0.0320831 0.0442523 1.62317e-12)
(0.030484 0.0436364 1.54582e-12)
(0.0288948 0.0430599 1.49678e-12)
(0.0273153 0.0425214 1.42685e-12)
(0.0257449 0.0420193 1.38401e-12)
(0.0241833 0.0415524 1.3207e-12)
(0.0226301 0.0411194 1.28345e-12)
(0.0210849 0.0407192 1.22637e-12)
(0.0195471 0.0403508 1.19403e-12)
(0.0180162 0.0400131 1.14291e-12)
(0.0164919 0.0397054 1.11507e-12)
(0.0149735 0.0394269 1.06972e-12)
(0.0134605 0.0391768 1.04648e-12)
(0.0119525 0.0389546 1.00721e-12)
(0.0104488 0.0387597 9.89732e-13)
(0.00894899 0.0385917 9.57953e-13)
(0.00745246 0.03845 9.51032e-13)
(0.00595868 0.0383345 9.29755e-13)
(0.00446708 0.0382449 9.37134e-13)
(0.00297715 0.0381809 9.33732e-13)
(0.00148845 0.0381425 9.49172e-13)
(1.59233e-08 0.0381298 9.38059e-13)
(-0.00148842 0.0381425 1.08234e-12)
(-0.00297712 0.0381809 2.72342e-13)
(-0.00446705 0.0382449 2.70575e-12)
(-0.00595864 0.0383345 -4.19189e-13)
(0.0248137 0.179724 1.27268e-11)
(0.0295036 0.177949 9.09426e-12)
(0.0340462 0.175878 8.29176e-12)
(0.0384182 0.173523 8.55644e-12)
(0.0425969 0.170899 8.83807e-12)
(0.0465609 0.168024 9.02851e-12)
(0.0502904 0.164917 8.99221e-12)
(0.0537673 0.161602 9.02584e-12)
(0.0569762 0.158103 8.78663e-12)
(0.0599046 0.154447 8.72471e-12)
(0.0625432 0.150661 8.41635e-12)
(0.0648869 0.146776 8.31186e-12)
(0.0669342 0.14282 8.02385e-12)
(0.0686876 0.138822 7.90133e-12)
(0.0701532 0.134809 7.67163e-12)
(0.0713403 0.130807 7.53558e-12)
(0.072261 0.126838 7.35877e-12)
(0.072929 0.122922 7.20135e-12)
(0.0733599 0.119078 7.04812e-12)
(0.07357 0.115319 6.85958e-12)
(0.0735761 0.111657 6.69903e-12)
(0.0733949 0.108102 6.47622e-12)
(0.0730432 0.104661 6.29018e-12)
(0.0725368 0.101339 6.039e-12)
(0.0718911 0.0981399 5.82484e-12)
(0.0711207 0.0950648 5.55738e-12)
(0.070239 0.0921144 5.3232e-12)
(0.0692588 0.0892882 5.05289e-12)
(0.0681915 0.0865848 4.8108e-12)
(0.0670481 0.0840019 4.54868e-12)
(0.065838 0.0815369 4.30995e-12)
(0.0645702 0.0791864 4.06322e-12)
(0.0632526 0.0769471 3.8361e-12)
(0.0618924 0.0748152 3.60847e-12)
(0.0604961 0.0727867 3.39814e-12)
(0.0590692 0.0708578 3.19094e-12)
(0.057617 0.0690244 3.00004e-12)
(0.0561438 0.0672826 2.8132e-12)
(0.0546538 0.0656285 2.64273e-12)
(0.0531503 0.0640583 2.47544e-12)
(0.0516365 0.0625683 2.32527e-12)
(0.0501151 0.0611549 2.17637e-12)
(0.0485883 0.0598146 2.0456e-12)
(0.0470581 0.0585442 1.91371e-12)
(0.0455264 0.0573405 1.80096e-12)
(0.0439945 0.0562004 1.68458e-12)
(0.0424637 0.0551212 1.58815e-12)
(0.0409352 0.0541001 1.48571e-12)
(0.0394097 0.0531346 1.40376e-12)
(0.0378879 0.0522223 1.31374e-12)