/*--------------------------------*- C++ -*----------------------------------*\
| =========                 |                                                 |
| \\      /  F ield         | OpenFOAM: The Open Source CFD Toolbox           |
|  \\    /   O peration     | Version:  2306                                  |
|   \\  /    A nd           | Website:  www.openfoam.com                      |
|    \\/     M anipulation  |                                                 |
\*---------------------------------------------------------------------------*/
FoamFile
{
    version     2.0;
    format      ascii;
    arch        "LSB;label=32;scalar=64";
    class       volScalarField;
    location    "12.5";
    object      p;
}
// * * * * * * * * * * * * * * * * * * * * * * * * * * * * * * * * * * * * * //

dimensions      [1 -1 -2 0 0 0 0];

internalField   nonuniform List<scalar> 
14400
(
0.0242836
0.0250695
0.0260036
0.0270898
0.0283215
0.0296331
0.0309195
0.0328363
0.037373
0.0309259
-0.0502917
-0.0736091
-0.0642514
-0.0544175
-0.0486975
-0.0447588
-0.0415186
-0.0387917
-0.0364759
-0.0344719
-0.0327136
-0.031158
-0.0297736
-0.028536
-0.0274257
-0.0264268
-0.025526
-0.0247119
-0.0239746
-0.0233058
-0.0226978
-0.0221442
-0.0216391
-0.0211774
-0.0207547
-0.020367
-0.0200108
-0.019683
-0.0193809
-0.019102
-0.0188442
-0.0186057
-0.0183846
-0.0181796
-0.0179892
-0.0178123
-0.0176478
-0.0174947
-0.0173522
-0.0172195
-0.0170959
-0.0169807
-0.0168734
-0.0167736
-0.0166806
-0.0165942
-0.0165138
-0.0164393
-0.0163702
-0.0163064
-0.0162474
-0.0161932
-0.0161435
-0.0160981
-0.0160568
-0.0160195
-0.0159861
-0.0159565
-0.0159305
-0.0159081
-0.0158891
-0.0158736
-0.0158616
-0.0158528
-0.0158474
-0.0158457
-0.015848
-0.015854
-0.0158633
-0.015876
-0.0159678
-0.0161584
-0.0164363
-0.0168269
-0.0173598
-0.0180833
-0.019088
-0.0203589
-0.0215317
-0.0243051
-0.0346205
-0.0373512
-0.0361375
-0.0349058
-0.0337674
-0.0324811
-0.0311061
-0.029745
-0.0284502
-0.0272445
-0.0261383
-0.0251338
-0.0242277
-0.0234131
-0.0226815
-0.0220241
-0.0214323
-0.0208984
-0.0204152
-0.0199767
-0.0195775
-0.0192131
-0.0188794
-0.0185731
-0.0182914
-0.0180316
-0.0177917
-0.0175698
-0.0173641
-0.0171733
-0.0169961
-0.0168312
-0.0166778
-0.0165349
-0.0164016
-0.0162774
-0.0161614
-0.0160531
-0.0159519
-0.0158575
-0.0157693
-0.0156869
-0.01561
-0.0155382
-0.0154713
-0.0154089
-0.0153509
-0.0152969
-0.0152468
-0.0152005
-0.0151576
-0.0151181
-0.0150819
-0.0150487
-0.0150185
-0.0149912
-0.0149668
-0.014945
-0.0149259
-0.0149093
-0.0148953
-0.0148837
-0.0148746
-0.0148679
-0.0148635
-0.014862
-0.0148641
-0.014869
-0.0148763
-0.014886
0.0134777
0.0134518
0.0133336
0.0130839
0.0126525
0.0119735
0.0109516
0.00946947
0.00747163
0.00479196
0.000591682
-0.00377751
-0.00721894
-0.00980205
-0.0117881
-0.0133181
-0.0144801
-0.0153454
-0.0159727
-0.0164107
-0.0166994
-0.0168717
-0.0169546
-0.0169698
-0.0169348
-0.0168635
-0.0167668
-0.016653
-0.0165286
-0.0163982
-0.0162655
-0.016133
-0.0160027
-0.0158757
-0.015753
-0.015635
-0.0155221
-0.0154145
-0.015312
-0.0152148
-0.0151226
-0.0150354
-0.0149529
-0.0148749
-0.0148013
-0.0147318
-0.0146662
-0.0146045
-0.0145463
-0.0144915
-0.0144399
-0.0143915
-0.0143459
-0.0143032
-0.0142631
-0.0142256
-0.0141905
-0.0141577
-0.0141271
-0.0140987
-0.0140724
-0.0140481
-0.0140256
-0.0140051
-0.0139863
-0.0139692
-0.0139539
-0.0139402
-0.0139281
-0.0139176
-0.0139086
-0.0139012
-0.0138953
-0.0138908
-0.0138877
-0.0138866
-0.0138882
-0.0138919
-0.013897
-0.0139035
0.00861376
0.00833131
0.00796013
0.00748528
0.00688845
0.00614763
0.00523613
0.00412189
0.0027696
0.00112568
-0.000861637
-0.00284667
-0.00459497
-0.00609702
-0.00738853
-0.0084887
-0.00941472
-0.0101879
-0.0108299
-0.011361
-0.0117984
-0.0121571
-0.01245
-0.0126877
-0.0128793
-0.0130323
-0.0131531
-0.0132472
-0.013319
-0.0133724
-0.0134106
-0.0134363
-0.0134519
-0.0134591
-0.0134597
-0.013455
-0.0134461
-0.0134338
-0.013419
-0.0134023
-0.0133842
-0.0133652
-0.0133455
-0.0133255
-0.0133054
-0.0132854
-0.0132656
-0.0132461
-0.0132271
-0.0132086
-0.0131907
-0.0131735
-0.0131569
-0.0131409
-0.0131257
-0.0131112
-0.0130974
-0.0130843
-0.0130719
-0.0130603
-0.0130493
-0.0130391
-0.0130296
-0.0130208
-0.0130126
-0.0130051
-0.0129983
-0.0129922
-0.0129867
-0.0129819
-0.0129777
-0.0129741
-0.0129711
-0.0129688
-0.0129669
-0.0129663
-0.0129675
-0.0129699
-0.0129728
-0.0129763
0.012154
0.0119247
0.0116165
0.011216
0.0107079
0.0100753
0.00930087
0.00836875
0.00726683
0.00598776
0.00454488
0.00302947
0.00152075
6.63017e-05
-0.00130267
-0.00256624
-0.00371484
-0.00474679
-0.00566557
-0.00647779
-0.00719188
-0.00781711
-0.00836285
-0.0088382
-0.00925165
-0.00961097
-0.00992313
-0.0101943
-0.01043
-0.010635
-0.0108133
-0.0109685
-0.0111039
-0.011222
-0.0113251
-0.0114152
-0.0114941
-0.0115632
-0.0116238
-0.011677
-0.0117237
-0.0117648
-0.011801
-0.0118328
-0.0118609
-0.0118857
-0.0119075
-0.0119268
-0.0119438
-0.0119589
-0.0119722
-0.0119839
-0.0119943
-0.0120035
-0.0120115
-0.0120187
-0.012025
-0.0120305
-0.0120353
-0.0120396
-0.0120433
-0.0120465
-0.0120492
-0.0120516
-0.0120536
-0.0120553
-0.0120567
-0.0120578
-0.0120586
-0.0120592
-0.0120596
-0.0120598
-0.0120597
-0.0120594
-0.0120588
-0.0120586
-0.0120593
-0.0120605
-0.0120613
-0.0120619
0.0125669
0.0122749
0.0119075
0.0114581
0.0109202
0.0102878
0.00955595
0.00872253
0.00778929
0.00676349
0.0056615
0.0045157
0.00335953
0.0022197
0.00111617
6.32095e-05
-0.000929661
-0.00185689
-0.00271603
-0.00350698
-0.00423137
-0.004892
-0.00549245
-0.00603675
-0.00652914
-0.00697391
-0.00737522
-0.0077371
-0.0080633
-0.00835734
-0.00862245
-0.00886157
-0.00907738
-0.0092723
-0.0094485
-0.00960794
-0.00975235
-0.0098833
-0.0100022
-0.0101102
-0.0102085
-0.010298
-0.0103796
-0.0104542
-0.0105222
-0.0105845
-0.0106415
-0.0106937
-0.0107416
-0.0107855
-0.0108258
-0.0108628
-0.0108968
-0.010928
-0.0109566
-0.0109829
-0.011007
-0.0110291
-0.0110493
-0.0110678
-0.0110846
-0.0110999
-0.0111137
-0.0111262
-0.0111374
-0.0111474
-0.0111562
-0.0111639
-0.0111705
-0.011176
-0.0111806
-0.0111841
-0.0111867
-0.0111883
-0.0111889
-0.011189
-0.0111894
-0.0111894
-0.0111883
-0.0111862
0.012278
0.011995
0.0116478
0.0112337
0.0107503
0.0101957
0.00956943
0.00887271
0.00810912
0.00728533
0.00641186
0.00550368
0.00457719
0.00364775
0.00272882
0.00183163
0.00096508
0.000135798
-0.000651653
-0.00139448
-0.00209134
-0.00274208
-0.00334744
-0.0039088
-0.00442806
-0.00490739
-0.00534915
-0.00575581
-0.00612981
-0.00647359
-0.00678947
-0.00707968
-0.00734631
-0.00759132
-0.00781653
-0.00802363
-0.00821417
-0.00838957
-0.00855113
-0.00870003
-0.00883735
-0.00896407
-0.00908108
-0.0091892
-0.00928916
-0.00938161
-0.00946716
-0.00954637
-0.00961971
-0.00968764
-0.00975057
-0.00980886
-0.00986285
-0.00991284
-0.00995909
-0.0100019
-0.0100414
-0.0100778
-0.0101114
-0.0101423
-0.0101707
-0.0101966
-0.0102202
-0.0102416
-0.010261
-0.0102783
-0.0102937
-0.0103072
-0.010319
-0.010329
-0.0103373
-0.0103439
-0.0103488
-0.0103521
-0.0103537
-0.0103543
-0.0103542
-0.0103531
-0.0103503
-0.0103459
0.0116679
0.0114049
0.0110873
0.0107144
0.0102859
0.00980218
0.00926436
0.00867486
0.00803747
0.00735759
0.00664229
0.00590025
0.00514085
0.00437345
0.00360678
0.00284862
0.00210568
0.00138343
0.000686205
1.72316e-05
-0.000621243
-0.00122782
-0.00180184
-0.00234322
-0.00285235
-0.00333
-0.00377721
-0.00419523
-0.00458543
-0.00494926
-0.00528822
-0.00560381
-0.00589749
-0.0061707
-0.00642482
-0.00666117
-0.00688099
-0.00708545
-0.00727566
-0.00745265
-0.00761736
-0.00777068
-0.00791343
-0.00804637
-0.00817021
-0.00828557
-0.00839306
-0.00849321
-0.00858654
-0.00867348
-0.00875448
-0.0088299
-0.00890011
-0.00896542
-0.00902614
-0.00908253
-0.00913484
-0.0091833
-0.00922811
-0.00926946
-0.00930751
-0.00934243
-0.00937435
-0.00940341
-0.0094297
-0.00945334
-0.00947442
-0.00949301
-0.00950918
-0.009523
-0.00953451
-0.00954376
-0.00955079
-0.00955558
-0.00955812
-0.00955896
-0.00955861
-0.00955655
-0.00955226
-0.00954573
0.0108543
0.0106191
0.0103381
0.0100115
0.00964014
0.00922507
0.00876804
0.00827152
0.00773876
0.00717385
0.00658168
0.00596782
0.00533823
0.00469895
0.00405582
0.0034143
0.00277931
0.00215516
0.00154549
0.000953295
0.000380928
-0.000169841
-0.000697767
-0.00120207
-0.00168236
-0.0021386
-0.00257101
-0.00298002
-0.00336627
-0.00373049
-0.00407352
-0.00439628
-0.0046997
-0.00498474
-0.00525237
-0.00550354
-0.00573917
-0.00596016
-0.00616738
-0.00636166
-0.00654377
-0.00671447
-0.00687445
-0.00702437
-0.00716485
-0.00729646
-0.00741976
-0.00753523
-0.00764334
-0.00774454
-0.00783922
-0.00792775
-0.00801049
-0.00808774
-0.00815981
-0.00822696
-0.00828946
-0.00834752
-0.00840135
-0.00845117
-0.00849713
-0.0085394
-0.00857813
-0.00861346
-0.0086455
-0.00867437
-0.00870015
-0.00872295
-0.00874282
-0.00875984
-0.00877407
-0.00878554
-0.00879431
-0.00880036
-0.00880369
-0.0088048
-0.00880416
-0.0088013
-0.00879572
-0.00878743
0.00996934
0.0097641
0.00952048
0.00923921
0.00892131
0.00856811
0.00818137
0.00776329
0.0073165
0.00684411
0.00634965
0.00583699
0.00531019
0.0047734
0.00423072
0.00368605
0.00314304
0.002605
0.00207486
0.00155518
0.00104809
0.000555342
7.83236e-05
-0.000381915
-0.000824629
-0.00124934
-0.00165582
-0.00204402
-0.00241406
-0.00276622
-0.00310088
-0.00341849
-0.0037196
-0.00400478
-0.00427465
-0.00452984
-0.00477099
-0.00499875
-0.00521375
-0.00541661
-0.00560795
-0.00578836
-0.00595838
-0.00611858
-0.00626945
-0.0064115
-0.00654518
-0.00667093
-0.00678917
-0.00690028
-0.00700462
-0.00710254
-0.00719436
-0.00728037
-0.00736086
-0.00743606
-0.00750624
-0.0075716
-0.00763236
-0.0076887
-0.00774079
-0.00778881
-0.00783288
-0.00787315
-0.00790974
-0.00794276
-0.0079723
-0.00799846
-0.0080213
-0.0080409
-0.00805731
-0.00807059
-0.00808077
-0.00808785
-0.00809183
-0.00809316
-0.00809228
-0.00808876
-0.00808213
-0.00807241
0.00908163
0.00890493
0.00869606
0.00845587
0.00818542
0.00788599
0.00755915
0.00720673
0.00683086
0.00643392
0.00601853
0.00558751
0.00514378
0.00469033
0.00423013
0.00376606
0.00330085
0.00283708
0.00237706
0.0019229
0.00147643
0.00103925
0.000612688
0.000197837
-0.000204428
-0.000593443
-0.00096873
-0.00132998
-0.00167703
-0.00200983
-0.00232847
-0.0026331
-0.00292396
-0.00320134
-0.00346559
-0.0037171
-0.00395627
-0.00418352
-0.0043993
-0.00460404
-0.0047982
-0.0049822
-0.00515648
-0.00532146
-0.00547755
-0.00562514
-0.00576461
-0.00589633
-0.00602065
-0.00613788
-0.00624836
-0.00635236
-0.00645018
-0.00654208
-0.00662831
-0.00670909
-0.00678466
-0.0068552
-0.00692092
-0.00698198
-0.00703855
-0.00709078
-0.00713881
-0.00718277
-0.00722276
-0.00725891
-0.00729129
-0.00732
-0.00734511
-0.00736669
-0.00738478
-0.00739945
-0.00741072
-0.0074186
-0.0074231
-0.00742461
-0.00742353
-0.00741947
-0.00741203
-0.00740119
0.00822826
0.00807729
0.00789929
0.00769508
0.00746562
0.00721205
0.00693569
0.00663806
0.00632084
0.0059859
0.00563522
0.00527091
0.00489517
0.00451021
0.00411826
0.00372149
0.00332201
0.0029218
0.00252272
0.00212648
0.00173463
0.00134855
0.000969434
0.000598334
0.000236121
-0.000116482
-0.000458896
-0.000790677
-0.0011115
-0.00142115
-0.00171949
-0.00200651
-0.00228222
-0.00254673
-0.00280019
-0.00304278
-0.00327473
-0.0034963
-0.00370777
-0.00390941
-0.00410154
-0.00428447
-0.00445849
-0.00462393
-0.00478109
-0.00493028
-0.00507179
-0.00520591
-0.00533292
-0.00545309
-0.00556668
-0.00567393
-0.00577509
-0.00587038
-0.00596001
-0.00604418
-0.00612309
-0.00619692
-0.00626583
-0.00632998
-0.00638952
-0.00644459
-0.0064953
-0.00654178
-0.00658414
-0.00662246
-0.00665684
-0.00668736
-0.00671408
-0.00673707
-0.00675637
-0.00677204
-0.00678411
-0.00679258
-0.00679746
-0.00679911
-0.00679788
-0.00679342
-0.00678537
-0.00677372
0.0074289
0.00730031
0.00714893
0.0069755
0.00678085
0.00656593
0.00633186
0.00607984
0.00581123
0.00552748
0.00523013
0.00492082
0.0046012
0.00427298
0.00393785
0.00359751
0.00325358
0.00290763
0.00256115
0.00221554
0.00187209
0.00153195
0.00119621
0.000865785
0.00054151
0.000224091
-8.58715e-05
-0.000387879
-0.00068153
-0.00096651
-0.00124259
-0.0015096
-0.00176745
-0.00201611
-0.00225558
-0.00248591
-0.00270721
-0.00291959
-0.00312321
-0.00331822
-0.00350483
-0.00368323
-0.00385362
-0.00401623
-0.00417127
-0.00431897
-0.00445954
-0.00459321
-0.00472018
-0.00484067
-0.00495489
-0.00506304
-0.0051653
-0.00526186
-0.00535291
-0.0054386
-0.0055191
-0.00559456
-0.00566513
-0.00573095
-0.00579213
-0.0058488
-0.00590107
-0.00594905
-0.00599282
-0.00603247
-0.00606809
-0.00609973
-0.00612747
-0.00615136
-0.00617144
-0.00618777
-0.00620036
-0.00620922
-0.00621437
-0.00621611
-0.00621476
-0.00621002
-0.00620155
-0.00618936
0.00669166
0.00658223
0.00645352
0.00630614
0.00614081
0.00595831
0.00575954
0.0055455
0.00531725
0.00507594
0.0048228
0.00455908
0.00428609
0.00400515
0.00371759
0.00342472
0.00312785
0.00282821
0.00252701
0.00222539
0.00192442
0.00162509
0.00132832
0.00103493
0.000745669
0.000461199
0.000182101
-9.11225e-05
-0.000358045
-0.00061831
-0.000871625
-0.00111776
-0.00135654
-0.00158784
-0.00181158
-0.00202773
-0.00223628
-0.00243725
-0.0026307
-0.00281672
-0.00299539
-0.00316683
-0.00333117
-0.00348854
-0.00363909
-0.00378297
-0.00392033
-0.00405134
-0.00417614
-0.0042949
-0.00440776
-0.0045149
-0.00461644
-0.00471255
-0.00480336
-0.00488901
-0.00496963
-0.00504534
-0.00511627
-0.00518252
-0.00524421
-0.00530144
-0.00535429
-0.00540286
-0.00544723
-0.00548747
-0.00552364
-0.00555582
-0.00558406
-0.00560839
-0.00562888
-0.00564554
-0.00565841
-0.0056675
-0.0056728
-0.0056746
-0.00567318
-0.00566826
-0.00565955
-0.00564706
0.0060187
0.00592545
0.00581583
0.00569034
0.00554958
0.00539419
0.0052249
0.0050425
0.00484786
0.00464188
0.00442555
0.00419984
0.0039658
0.00372446
0.00347688
0.00322411
0.00296717
0.00270709
0.00244483
0.00218132
0.00191747
0.00165411
0.00139201
0.0011319
0.000874443
0.000620237
0.000369823
0.000123681
-0.000117767
-0.000354152
-0.000585162
-0.00081053
-0.00103004
-0.00124351
-0.00145081
-0.00165184
-0.00184653
-0.00203484
-0.00221676
-0.00239229
-0.00256147
-0.00272435
-0.00288098
-0.00303144
-0.00317582
-0.0033142
-0.00344668
-0.00357338
-0.00369439
-0.00380984
-0.00391982
-0.00402445
-0.00412385
-0.00421813
-0.00430739
-0.00439173
-0.00447127
-0.00454609
-0.0046163
-0.00468199
-0.00474323
-0.00480013
-0.00485274
-0.00490115
-0.00494542
-0.00498561
-0.00502178
-0.00505398
-0.00508226
-0.00510666
-0.00512721
-0.00514394
-0.00515689
-0.00516604
-0.00517141
-0.00517324
-0.00517177
-0.00516676
-0.00515797
-0.00514538
0.00540844
0.00532883
0.00523525
0.00512814
0.00500795
0.00487522
0.00473055
0.00457458
0.004408
0.00423153
0.00404596
0.00385208
0.00365071
0.00344268
0.00322885
0.00301004
0.0027871
0.00256085
0.00233208
0.00210157
0.00187006
0.00163825
0.00140682
0.00117637
0.000947507
0.000720751
0.000496597
0.000275491
5.78333e-05
-0.000156018
-0.000365746
-0.000571075
-0.000771767
-0.000967619
-0.00115846
-0.00134416
-0.00152459
-0.00169969
-0.00186939
-0.00203364
-0.00219244
-0.00234577
-0.00249366
-0.00263612
-0.00277319
-0.00290492
-0.00303136
-0.00315258
-0.00326864
-0.00337961
-0.00348557
-0.00358659
-0.00368276
-0.00377414
-0.00386082
-0.00394287
-0.00402037
-0.00409341
-0.00416204
-0.00422634
-0.00428638
-0.00434222
-0.00439392
-0.00444154
-0.00448514
-0.00452476
-0.00456045
-0.00459225
-0.0046202
-0.00464433
-0.00466467
-0.00468125
-0.00469408
-0.00470318
-0.00470853
-0.00471036
-0.00470887
-0.00470386
-0.00469511
-0.00468261
0.00485753
0.00478936
0.00470923
0.00461749
0.00451453
0.00440079
0.00427673
0.00414288
0.00399979
0.00384807
0.00368832
0.0035212
0.00334735
0.00316746
0.00298221
0.00279228
0.00259835
0.00240109
0.00220116
0.0019992
0.00179584
0.00159166
0.00138724
0.00118311
0.000979778
0.000777717
0.000577368
0.000379136
0.000183392
-9.52544e-06
-0.000199312
-0.000385694
-0.000568429
-0.000747303
-0.000922132
-0.00109276
-0.00125904
-0.00142087
-0.00157816
-0.00173084
-0.00187885
-0.00202215
-0.00216072
-0.00229455
-0.00242363
-0.00254799
-0.00266763
-0.00278259
-0.0028929
-0.0029986
-0.00309972
-0.00319632
-0.00328845
-0.00337616
-0.00345949
-0.00353851
-0.00361327
-0.00368381
-0.0037502
-0.00381248
-0.00387071
-0.00392492
-0.00397518
-0.00402152
-0.00406398
-0.00410261
-0.00413743
-0.00416848
-0.00419579
-0.00421939
-0.00423929
-0.00425553
-0.00426811
-0.00427704
-0.00428231
-0.00428411
-0.00428263
-0.00427767
-0.00426907
-0.0042568
0.0043615
0.00430295
0.00423413
0.00415531
0.00406681
0.003969
0.00386224
0.00374698
0.00362365
0.00349274
0.00335476
0.00321021
0.00305965
0.00290361
0.00274266
0.00257735
0.00240824
0.00223588
0.00206082
0.0018836
0.00170473
0.00152472
0.00134405
0.00116318
0.000982558
0.000802595
0.00062368
0.00044618
0.000270432
9.67487e-05
-7.45826e-05
-0.000243301
-0.000409168
-0.000571973
-0.000731523
-0.000887652
-0.00104021
-0.00118907
-0.00133413
-0.00147528
-0.00161245
-0.00174558
-0.00187463
-0.00199954
-0.0021203
-0.00223689
-0.0023493
-0.00245753
-0.00256159
-0.0026615
-0.00275725
-0.00284889
-0.00293644
-0.00301992
-0.00309937
-0.00317482
-0.00324629
-0.00331384
-0.00337749
-0.00343727
-0.00349323
-0.00354539
-0.00359379
-0.00363847
-0.00367944
-0.00371674
-0.00375039
-0.00378042
-0.00380685
-0.00382971
-0.003849
-0.00386474
-0.00387695
-0.00388562
-0.00389076
-0.00389252
-0.00389106
-0.00388622
-0.00387784
-0.00386593
0.00391571
0.00386526
0.00380594
0.00373799
0.00366167
0.00357726
0.00348508
0.00338548
0.00327883
0.00316551
0.00304593
0.00292053
0.00278973
0.002654
0.00251377
0.00236952
0.00222171
0.00207079
0.00191721
0.00176144
0.0016039
0.00144502
0.00128522
0.00112489
0.000964407
0.000804146
0.000644446
0.000485632
0.000328011
0.000171866
1.74633e-05
-0.000134952
-0.000285154
-0.000432938
-0.000578115
-0.000720515
-0.000859987
-0.000996395
-0.00112962
-0.00125955
-0.0013861
-0.00150919
-0.00162876
-0.00174474
-0.00185709
-0.00196577
-0.00207077
-0.00217205
-0.0022696
-0.00236342
-0.0024535
-0.00253985
-0.00262247
-0.00270137
-0.00277657
-0.00284809
-0.00291593
-0.00298012
-0.00304068
-0.00309763
-0.00315099
-0.00320078
-0.00324703
-0.00328975
-0.00332896
-0.00336469
-0.00339695
-0.00342576
-0.00345113
-0.00347307
-0.00349161
-0.00350675
-0.00351849
-0.00352685
-0.00353181
-0.00353351
-0.00353208
-0.0035274
-0.00351931
-0.00350784
0.0035155
0.00347188
0.0034206
0.00336183
0.00329578
0.00322271
0.00314286
0.00305651
0.00296398
0.00286557
0.00276164
0.00265251
0.00253856
0.00242016
0.00229768
0.0021715
0.002042
0.00190958
0.00177461
0.00163746
0.00149851
0.00135812
0.00121665
0.00107442
0.000931788
0.000789055
0.000646527
0.000504493
0.000363226
0.000222986
8.40124e-05
-5.34664e-05
-0.00018924
-0.000323113
-0.000454906
-0.000584452
-0.0007116
-0.000836214
-0.000958168
-0.00107735
-0.00119366
-0.00130702
-0.00141734
-0.00152455
-0.0016286
-0.00172944
-0.00182702
-0.00192131
-0.00201228
-0.00209991
-0.00218418
-0.00226507
-0.00234259
-0.00241673
-0.00248747
-0.00255484
-0.00261882
-0.00267944
-0.00273668
-0.00279057
-0.00284112
-0.00288832
-0.00293221
-0.00297278
-0.00301005
-0.00304403
-0.00307474
-0.00310217
-0.00312634
-0.00314727
-0.00316495
-0.0031794
-0.00319062
-0.0031986
-0.00320335
-0.00320498
-0.00320361
-0.00319911
-0.00319137
-0.0031804
0.00315648
0.00311864
0.00307415
0.00302315
0.00296582
0.00290235
0.00283296
0.00275787
0.00267735
0.00259164
0.00250103
0.00240581
0.00230627
0.00220272
0.00209547
0.00198485
0.00187116
0.00175474
0.0016359
0.00151496
0.00139224
0.00126804
0.00114266
0.00101641
0.000889566
0.000762405
0.000635194
0.000508188
0.000381632
0.000255757
0.000130782
6.91427e-06
-0.000115651
-0.00023673
-0.000356155
-0.000473767
-0.000589418
-0.000702976
-0.000814315
-0.000923322
-0.0010299
-0.00113394
-0.00123537
-0.00133412
-0.00143011
-0.00152329
-0.00161361
-0.00170101
-0.00178547
-0.00186694
-0.00194539
-0.00202081
-0.00209318
-0.00216247
-0.00222868
-0.0022918
-0.00235182
-0.00240874
-0.00246255
-0.00251325
-0.00256085
-0.00260534
-0.00264674
-0.00268504
-0.00272025
-0.00275237
-0.00278142
-0.00280738
-0.00283027
-0.0028501
-0.00286686
-0.00288055
-0.0028912
-0.00289878
-0.0029033
-0.00290485
-0.00290353
-0.00289924
-0.00289188
-0.00288146
0.00283445
0.00280153
0.00276282
0.00271843
0.00266851
0.00261323
0.00255274
0.00248726
0.00241698
0.00234213
0.00226292
0.00217961
0.00209244
0.00200166
0.00190754
0.00181034
0.00171034
0.00160779
0.00150298
0.00139617
0.00128762
0.00117761
0.0010664
0.000954231
0.000841358
0.000728023
0.000614458
0.00050089
0.000387534
0.000274598
0.000162279
5.0767e-05
-5.97608e-05
-0.000169136
-0.000277199
-0.000383802
-0.000488805
-0.000592078
-0.000693502
-0.000792964
-0.000890362
-0.000985602
-0.0010786
-0.00116927
-0.00125754
-0.00134335
-0.00142665
-0.00150737
-0.00158547
-0.00166092
-0.00173367
-0.00180369
-0.00187095
-0.00193543
-0.00199712
-0.00205598
-0.00211202
-0.0021652
-0.00221553
-0.002263
-0.0023076
-0.00234933
-0.00238817
-0.00242414
-0.00245723
-0.00248743
-0.00251475
-0.00253919
-0.00256075
-0.00257942
-0.00259522
-0.00260814
-0.00261818
-0.00262533
-0.00262961
-0.00263107
-0.00262981
-0.00262575
-0.00261879
-0.00260896
0.00254566
0.00251694
0.00248316
0.00244441
0.00240082
0.00235252
0.00229966
0.00224239
0.0021809
0.00211535
0.00204594
0.00197287
0.00189635
0.00181659
0.00173382
0.00164824
0.0015601
0.00146962
0.00137702
0.00128255
0.00118642
0.00108887
0.000990114
0.000890375
0.000789869
0.000688807
0.000587393
0.000485826
0.000384297
0.000282993
0.000182091
8.17605e-05
-1.78358e-05
-0.000116544
-0.000214216
-0.000310715
-0.000405909
-0.000499675
-0.000591899
-0.000682472
-0.000771295
-0.000858273
-0.00094332
-0.00102636
-0.00110731
-0.00118611
-0.0012627
-0.00133701
-0.00140901
-0.00147864
-0.00154586
-0.00161063
-0.00167292
-0.0017327
-0.00178994
-0.00184461
-0.00189671
-0.0019462
-0.00199308
-0.00203733
-0.00207893
-0.00211788
-0.00215417
-0.00218779
-0.00221874
-0.002247
-0.00227258
-0.00229547
-0.00231568
-0.00233318
-0.002348
-0.00236012
-0.00236954
-0.00237626
-0.00238028
-0.00238166
-0.00238046
-0.00237663
-0.00237009
-0.00236085
0.00228665
0.00226153
0.00223197
0.00219805
0.00215989
0.00211759
0.00207127
0.00202106
0.00196711
0.00190958
0.00184861
0.00178438
0.00171706
0.00164684
0.00157389
0.00149841
0.00142059
0.00134062
0.00125869
0.00117501
0.00108977
0.00100317
0.00091539
0.000826629
0.000737073
0.000646906
0.000556307
0.000465453
0.000374513
0.000283651
0.000193028
0.000102795
1.31005e-05
-7.59151e-05
-0.000164117
-0.000251378
-0.000337576
-0.000422595
-0.000506328
-0.00058867
-0.000669527
-0.000748807
-0.000826425
-0.000902304
-0.000976369
-0.00104855
-0.00111879
-0.00118702
-0.0012532
-0.00131727
-0.00137919
-0.00143892
-0.00149642
-0.00155165
-0.00160458
-0.00165519
-0.00170345
-0.00174934
-0.00179284
-0.00183392
-0.00187258
-0.0019088
-0.00194256
-0.00197386
-0.00200269
-0.00202903
-0.00205288
-0.00207423
-0.00209308
-0.00210943
-0.00212326
-0.00213458
-0.00214339
-0.00214967
-0.00215343
-0.00215472
-0.00215359
-0.00215
-0.00214388
-0.00213523
0.00205434
0.0020323
0.00200637
0.00197661
0.00194312
0.00190597
0.00186529
0.00182117
0.00177374
0.00172312
0.00166945
0.00161287
0.00155353
0.00149158
0.00142718
0.00136049
0.00129166
0.00122087
0.00114828
0.00107407
0.000998391
0.000921421
0.000843325
0.000764268
0.000684414
0.000603923
0.000522953
0.000441659
0.000360191
0.000278695
0.000197315
0.000116187
3.5444e-05
-4.47857e-05
-0.00012438
-0.00020322
-0.000281195
-0.000358197
-0.000434124
-0.000508881
-0.000582374
-0.000654518
-0.000725232
-0.000794438
-0.000862066
-0.000928047
-0.000992318
-0.00105482
-0.0011155
-0.00117431
-0.0012312
-0.00128612
-0.00133904
-0.00138992
-0.00143873
-0.00148543
-0.00153
-0.00157241
-0.00161263
-0.00165066
-0.00168646
-0.00172001
-0.00175132
-0.00178035
-0.0018071
-0.00183156
-0.00185371
-0.00187355
-0.00189108
-0.00190628
-0.00191914
-0.00192968
-0.00193787
-0.00194372
-0.00194723
-0.00194843
-0.00194737
-0.00194401
-0.0019383
-0.00193025
0.00184592
0.00182655
0.00180375
0.00177758
0.00174811
0.00171543
0.00167961
0.00164075
0.00159896
0.00155434
0.001507
0.00145707
0.00140466
0.00134992
0.00129296
0.00123393
0.00117297
0.00111022
0.00104582
0.000979916
0.000912653
0.000844177
0.000774633
0.000704163
0.000632912
0.000561018
0.000488622
0.000415859
0.000342863
0.000269763
0.000196688
0.000123759
5.10975e-05
-2.11818e-05
-9.29672e-05
-0.000164151
-0.00023463
-0.000304306
-0.000373084
-0.000440873
-0.000507588
-0.000573147
-0.000637473
-0.000700492
-0.000762134
-0.000822335
-0.000881033
-0.00093817
-0.000993693
-0.00104755
-0.00109969
-0.00115008
-0.00119867
-0.00124542
-0.0012903
-0.00133328
-0.00137432
-0.0014134
-0.0014505
-0.00148558
-0.00151863
-0.00154963
-0.00157856
-0.00160541
-0.00163015
-0.00165279
-0.0016733
-0.00169168
-0.00170791
-0.00172199
-0.00173392
-0.00174369
-0.00175129
-0.00175672
-0.00175997
-0.00176108
-0.00176009
-0.00175697
-0.00175167
-0.00174419
0.0016589
0.00164183
0.00162174
0.00159867
0.0015727
0.00154388
0.00151228
0.001478
0.0014411
0.00140169
0.00135986
0.00131571
0.00126936
0.00122089
0.00117044
0.00111812
0.00106405
0.00100835
0.000951144
0.000892553
0.000832707
0.000771729
0.000709747
0.000646884
0.000583267
0.000519018
0.000454259
0.000389111
0.000323691
0.000258115
0.000192497
0.000126947
6.15727e-05
-3.52198e-06
-6.82356e-05
-0.00013247
-0.000196132
-0.000259129
-0.000321375
-0.000382786
-0.000443281
-0.000502784
-0.000561222
-0.000618526
-0.000674629
-0.000729469
-0.000782986
-0.000835125
-0.000885833
-0.000935059
-0.000982758
-0.00102888
-0.0010734
-0.00111626
-0.00115744
-0.00119689
-0.0012346
-0.00127052
-0.00130464
-0.00133692
-0.00136735
-0.00139591
-0.00142257
-0.00144733
-0.00147015
-0.00149104
-0.00150997
-0.00152694
-0.00154194
-0.00155495
-0.00156597
-0.001575
-0.00158203
-0.00158705
-0.00159006
-0.00159109
-0.00159017
-0.00158727
-0.00158236
-0.00157544
0.00149106
0.00147599
0.00145825
0.00143788
0.00141494
0.00138948
0.00136156
0.00133125
0.00129862
0.00126375
0.00122672
0.00118763
0.00114655
0.00110359
0.00105884
0.0010124
0.000964379
0.000914875
0.000863998
0.000811855
0.000758555
0.000704206
0.000648919
0.000592803
0.000535967
0.000478519
0.000420567
0.000362217
0.000303574
0.00024474
0.000185816
0.000126902
6.80931e-05
9.48433e-06
-4.8833e-05
-0.00010677
-0.000164241
-0.000221163
-0.000277454
-0.000333039
-0.000387842
-0.000441793
-0.000494823
-0.000546866
-0.000597861
-0.000647748
-0.00069647
-0.000743974
-0.000790208
-0.000835125
-0.000878679
-0.000920828
-0.00096153
-0.00100075
-0.00103845
-0.00107459
-0.00110915
-0.0011421
-0.00117341
-0.00120305
-0.001231
-0.00125724
-0.00128176
-0.00130452
-0.00132552
-0.00134475
-0.00136218
-0.00137781
-0.00139162
-0.00140361
-0.00141377
-0.00142209
-0.00142857
-0.00143319
-0.00143597
-0.00143692
-0.00143606
-0.00143338
-0.00142884
-0.00142246
0.00134033
0.001327
0.00131132
0.0012933
0.001273
0.00125047
0.00122576
0.00119892
0.00117002
0.00113912
0.0011063
0.00107162
0.00103518
0.00099704
0.000957294
0.000916026
0.000873325
0.000829282
0.000783988
0.000737537
0.000690024
0.000641544
0.000592193
0.000542066
0.000491259
0.000439867
0.000387986
0.000335708
0.000283127
0.000230334
0.000177419
0.00012447
7.15745e-05
1.88167e-05
-3.37208e-05
-8.59574e-05
-0.000137815
-0.000189217
-0.000240091
-0.000290366
-0.000339972
-0.000388844
-0.000436918
-0.000484134
-0.000530432
-0.000575758
-0.000620056
-0.000663277
-0.000705372
-0.000746295
-0.000786002
-0.000824452
-0.000861605
-0.000897424
-0.000931875
-0.000964925
-0.000996543
-0.0010267
-0.00105537
-0.00108253
-0.00110815
-0.00113221
-0.0011547
-0.00117559
-0.00119487
-0.00121252
-0.00122853
-0.00124289
-0.00125558
-0.00126661
-0.00127595
-0.0012836
-0.00128955
-0.00129381
-0.00129637
-0.00129724
-0.00129645
-0.00129398
-0.0012898
-0.00128392
0.00120502
0.00119321
0.00117931
0.00116335
0.00114537
0.00112539
0.00110348
0.00107968
0.00105404
0.00102662
0.000997486
0.000966694
0.000934314
0.000900416
0.000865072
0.000828356
0.000790346
0.00075112
0.000710759
0.000669342
0.000626954
0.000583676
0.000539593
0.000494789
0.000449347
0.000403352
0.000356887
0.000310035
0.000262879
0.000215499
0.000167977
0.00012039
7.28173e-05
2.53343e-05
-2.19844e-05
-6.90659e-05
-0.000115839
-0.000162235
-0.000208187
-0.000253629
-0.000298499
-0.000342735
-0.000386279
-0.000429075
-0.000471066
-0.000512203
-0.000552433
-0.00059171
-0.000629987
-0.00066722
-0.000703369
-0.000738393
-0.000772255
-0.000804918
-0.00083635
-0.000866519
-0.000895395
-0.000922949
-0.000949156
-0.00097399
-0.000997429
-0.00101945
-0.00104004
-0.00105917
-0.00107683
-0.00109301
-0.00110768
-0.00112085
-0.00113249
-0.00114259
-0.00115116
-0.00115818
-0.00116365
-0.00116755
-0.0011699
-0.0011707
-0.00116997
-0.00116769
-0.00116385
-0.00115845
0.00108346
0.00107299
0.00106066
0.0010465
0.00103053
0.00101281
0.000993355
0.000972219
0.000949445
0.000925084
0.000899186
0.000871808
0.000843007
0.000812843
0.00078138
0.000748681
0.000714815
0.000679847
0.00064385
0.000606893
0.000569048
0.000530388
0.000490987
0.000450918
0.000410255
0.000369073
0.000327444
0.000285444
0.000243143
0.000200616
0.000157934
0.000115166
7.23836e-05
2.96542e-05
-1.29547e-05
-5.53776e-05
-9.755e-05
-0.000139409
-0.000180894
-0.000221945
-0.000262505
-0.000302517
-0.000341927
-0.000380683
-0.000418734
-0.000456033
-0.000492531
-0.000528184
-0.00056295
-0.000596786
-0.000629653
-0.000661514
-0.000692334
-0.000722078
-0.000750713
-0.000778211
-0.000804541
-0.000829676
-0.000853592
-0.000876264
-0.00089767
-0.000917789
-0.000936602
-0.000954092
-0.000970241
-0.000985035
-0.000998461
-0.00101051
-0.00102116
-0.00103041
-0.00103825
-0.00104468
-0.00104969
-0.00105327
-0.00105541
-0.00105614
-0.00105547
-0.00105338
-0.00104986
-0.00104491
0.000974231
0.000964928
0.000953974
0.000941392
0.000927209
0.000911456
0.000894165
0.000875374
0.000855122
0.000833451
0.000810408
0.000786039
0.000760395
0.000733528
0.000705492
0.000676345
0.000646144
0.000614948
0.000582818
0.000549816
0.000516006
0.00048145
0.000446214
0.000410363
0.000373961
0.000337074
0.000299767
0.000262106
0.000224155
0.000185978
0.00014764