/*--------------------------------*- C++ -*----------------------------------*\
| =========                 |                                                 |
| \\      /  F ield         | OpenFOAM: The Open Source CFD Toolbox           |
|  \\    /   O peration     | Version:  2306                                  |
|   \\  /    A nd           | Website:  www.openfoam.com                      |
|    \\/     M anipulation  |                                                 |
\*---------------------------------------------------------------------------*/
FoamFile
{
    version     2.0;
    format      ascii;
    arch        "LSB;label=32;scalar=64";
    class       surfaceScalarField;
    location    "12.5";
    object      phi;
}
// * * * * * * * * * * * * * * * * * * * * * * * * * * * * * * * * * * * * * //

dimensions      [0 3 -1 0 0 0 0];

oriented        oriented;

internalField   nonuniform List<scalar> 
37980
(
2.71019
4.19741
-7.26357e-08
3.26543
4.16946
-6.24873e-08
3.85726
4.13287
-4.96557e-08
4.49691
4.08505
-3.41566e-08
5.19935
4.02226
-2.66793e-08
5.98516
3.9389
-2.67898e-08
6.88386
3.826
-2.36288e-08
7.94119
3.66738
-2.3857e-08
9.24319
3.4227
-1.82442e-08
11.0093
2.95864
-3.31378e-08
9.01448
1.99477
6.43753e-10
7.62578
1.38871
-5.68518e-09
6.60998
1.0158
-1.29094e-08
5.83393
0.776043
-1.51721e-08
5.22021
0.613723
-1.13946e-08
4.72257
0.497637
-9.71971e-09
4.31132
0.411259
-6.19136e-09
3.96622
0.345093
-4.88793e-09
3.67281
0.293411
-2.18475e-09
3.42028
0.252531
-1.69311e-09
3.20041
0.219866
-2.15073e-10
3.0069
0.193511
-5.15328e-10
2.83487
0.172033
1.23105e-10
2.68052
0.154351
-3.74818e-10
2.54088
0.139644
-1.46553e-11
2.41359
0.127288
-3.52907e-10
2.29678
0.116805
1.93041e-11
2.18895
0.10783
-1.1653e-10
2.08888
0.100076
2.70579e-10
1.99555
0.0933243
2.34775e-10
1.90815
0.0874005
5.709e-10
1.82598
0.0821677
5.46989e-10
1.74847
0.0775168
7.98172e-10
1.67511
0.0733601
7.50649e-10
1.60548
0.0696266
9.19526e-10
1.53922
0.0662583
8.47232e-10
1.47602
0.0632073
9.52552e-10
1.41558
0.0604339
8.66247e-10
1.35768
0.0579049
9.27943e-10
1.30208
0.055592
8.38601e-10
1.24861
0.0534716
8.72202e-10
1.19709
0.0515232
7.87389e-10
1.14736
0.0497292
8.03508e-10
1.09929
0.0480746
7.27387e-10
1.05274
0.046546
7.32825e-10
1.00761
0.0451319
6.6709e-10
0.963785
0.0438223
6.66061e-10
0.921177
0.0426082
6.10884e-10
0.879695
0.0414818
6.05952e-10
0.839259
0.040436
5.60656e-10
0.799795
0.0394646
5.53358e-10
0.761233
0.038562
5.1686e-10
0.723509
0.0377234
5.08106e-10
0.686565
0.0369443
4.79194e-10
0.650344
0.0362207
4.69513e-10
0.614795
0.0355491
4.46988e-10
0.579869
0.0349261
4.36686e-10
0.54552
0.034349
4.19452e-10
0.511705
0.033815
4.08715e-10
0.478383
0.033322
3.95812e-10
0.445516
0.0328676
3.84755e-10
0.413065
0.0324502
3.75369e-10
0.380998
0.0320678
3.64068e-10
0.349279
0.031719
3.57514e-10
0.317876
0.0314025
3.4602e-10
0.286759
0.0311169
3.41681e-10
0.255898
0.0308612
3.29894e-10
0.225263
0.0306345
3.26944e-10
0.194828
0.0304358
3.14264e-10
0.164563
0.0302645
3.11549e-10
0.134443
0.0301198
2.97652e-10
0.104442
0.0300014
2.96006e-10
0.0745334
0.0299086
2.84128e-10
0.044692
0.0298414
2.77318e-10
0.0148923
0.0297997
2.3302e-10
-0.014893
0.0297853
1.21892e-10
-0.0446927
0.0297997
3.60013e-10
-0.074534
0.0298413
2.60952e-10
-0.104443
0.0299086
5.15253e-10
0.0300013
5.05739e-10
2.70946
3.68539
1.67081e-08
3.23653
3.64239
1.87451e-08
3.7813
3.5881
2.19188e-08
4.34596
3.52039
2.53493e-08
4.93183
3.4364
2.39308e-08
5.53859
3.33214
2.227e-08
6.16302
3.20156
1.94337e-08
6.79614
3.03426
1.7903e-08
7.40673
2.81211
1.58568e-08
7.85917
2.50621
1.55152e-08
7.75978
2.09416
2.56381e-09
7.4454
1.70308
2.41653e-09
7.06071
1.40049
1.2888e-09
6.66297
1.17379
1.87228e-09
6.27784
0.998848
2.13722e-09
5.91542
0.860063
3.43992e-09
5.5787
0.747978
3.75033e-09
5.26747
0.656327
4.591e-09
4.98023
0.580648
4.45675e-09
4.71513
0.517627
4.79398e-09
4.47027
0.464728
3.86635e-09
4.2438
0.419981
3.35898e-09
4.03399
0.381846
2.48303e-09
3.83923
0.349112
1.82938e-09
3.65805
0.320826
1.10881e-09
3.48911
0.296227
6.62555e-10
3.33121
0.274707
2.26944e-10
3.18326
0.255779
1.28341e-11
3.04429
0.239043
-2.07869e-10
2.91344
0.224175
-2.84165e-10
2.78993
0.210909
-3.92633e-10
2.67308
0.199022
-4.12475e-10
2.56226
0.18833
-4.72233e-10
2.45694
0.17868
-4.74518e-10
2.35663
0.16994
-5.11914e-10
2.26089
0.162
-5.08512e-10
2.16933
0.154768
-5.31474e-10
2.0816
0.148162
-5.24117e-10
1.99739
0.142115
-5.35362e-10
1.91641
0.136566
-5.24108e-10
1.83842
0.131464
-5.25817e-10
1.76318
0.126766
-5.11342e-10
1.69048
0.122431
-5.05985e-10
1.62013
0.118425
-4.89504e-10
1.55195
0.114719
-4.7949e-10
1.4858
0.111287
-4.62289e-10
1.42152
0.108104
-4.49626e-10
1.35897
0.105151
-4.32755e-10
1.29805
0.102408
-4.1893e-10
1.23862
0.09986
-4.03113e-10
1.1806
0.0974915
-3.89131e-10
1.12387
0.0952896
-3.74797e-10
1.06835
0.0932426
-3.61283e-10
1.01395
0.09134
-3.48636e-10
0.960602
0.0895721
-3.35945e-10
0.908221
0.0879306
-3.25033e-10
0.856739
0.0864078
-3.13338e-10
0.806091
0.0849966
-3.04107e-10
0.756216
0.0836908
-2.93463e-10
0.707053
0.0824849
-2.85809e-10
0.658547
0.0813736
-2.76209e-10
0.610644
0.0803525
-2.70009e-10
0.563295
0.0794174
-2.61424e-10
0.516449
0.0785645
-2.56565e-10
0.470061
0.0777907
-2.48973e-10
0.424085
0.0770929
-2.45409e-10
0.378478
0.0764685
-2.38936e-10
0.333197
0.0759152
-2.36931e-10
0.288202
0.075431
-2.32272e-10
0.243453
0.075014
-2.32776e-10
0.198909
0.0746629
-2.30654e-10
0.154534
0.0743764
-2.32809e-10
0.110289
0.0741535
-2.30056e-10
0.0661371
0.0739937
-2.38296e-10
0.0220398
0.073897
-2.66511e-10
-0.0220393
0.0738644
-3.71114e-10
-0.0661366
0.073897
-1.90169e-10
-0.110289
0.0739937
-2.4545e-10
-0.154534
0.0741535
-5.56225e-11
0.0743764
7.17912e-12
2.40771
3.23839
1.70001e-08
2.86051
3.18959
1.88706e-08
3.31921
3.12941
1.78969e-08
3.78315
3.05646
1.74241e-08
4.25049
2.96905
1.72249e-08
4.71747
2.86516
1.61558e-08
5.17678
2.74225
1.41813e-08
5.61408
2.59697
1.18106e-08
6.00133
2.42486
1.0224e-08
6.28652
2.22102
8.90821e-09
6.39258
1.9881
7.36674e-09
6.33617
1.75949
6.20409e-09
6.17992
1.55673
6.6492e-09
5.97149
1.38222
6.28104e-09
5.73821
1.23212
6.69134e-09
5.49565
1.10263
7.3669e-09
5.25297
0.990655
7.70465e-09
5.01566
0.893637
7.99437e-09
4.7869
0.809405
7.87206e-09
4.56842
0.736112
7.47629e-09
4.36097
0.672175
6.83133e-09
4.16471
0.616244
5.98261e-09
3.97939
0.567164
5.12152e-09
3.80454
0.523958
4.23371e-09
3.63957
0.485795
3.49244e-09
3.48383
0.45197
2.82333e-09
3.33665
0.421887
2.32161e-09
3.19739
0.395042
1.90239e-09
3.06542
0.371005
1.59973e-09
2.94018
0.349415
1.35547e-09
2.82113
0.329961
1.17061e-09
2.70778
0.312379
1.02242e-09
2.59966
0.296445
8.96078e-10
2.49638
0.281964
7.95578e-10
2.39755
0.268771
6.97807e-10
2.30282
0.256723
6.21936e-10
2.2119
0.245694
5.41112e-10
2.12448
0.235579
4.80499e-10
2.04031
0.226283
4.12658e-10
1.95915
0.217725
3.63415e-10
1.88078
0.209833
3.06989e-10
1.80501
0.202543
2.67056e-10
1.73164
0.195802
2.2086e-10
1.6605
0.189559
1.88714e-10
1.59145
0.183771
1.51502e-10
1.52434
0.1784
1.25825e-10
1.45903
0.173412
9.63065e-11
1.3954
0.168777
7.59411e-11
1.33335
0.164466
5.28728e-11
1.27275
0.160456
3.68133e-11
1.21352
0.156724
1.90573e-11
1.15556
0.153252
6.43543e-12
1.09878
0.15002
-7.02098e-12
1.0431
0.147014
-1.69415e-11
0.988456
0.144219
-2.69702e-11
0.934765
0.141622
-3.48068e-11
0.881962
0.139211
-4.21452e-11
0.829983
0.136975
-4.84021e-11
0.778768
0.134906
-5.36558e-11
0.72826
0.132993
-5.87449e-11
0.678403
0.131231
-6.2415e-11
0.629145
0.12961
-6.66693e-11
0.580436
0.128126
-6.91649e-11
0.532228
0.126772
-7.28591e-11
0.484475
0.125544
-7.45162e-11
0.437132
0.124436
-7.79151e-11
0.390157
0.123444
-7.91345e-11
0.343506
0.122566
-8.27789e-11
0.29714
0.121797
-8.44633e-11
0.251018
0.121136
-8.9465e-11
0.205101
0.12058
-9.24682e-11
0.159352
0.120126
-9.82409e-11
0.113731
0.119774
-9.98262e-11
0.0682025
0.119522
-1.13208e-10
0.0227285
0.119371
-1.5024e-10
-0.0227275
0.11932
-2.71785e-10
-0.0682015
0.119371
-7.28608e-11
-0.11373
0.119522
-1.6399e-10
-0.159351
0.119774
5.50728e-11
0.120126
8.9516e-11
2.07007
2.8634
3.87178e-10
2.44298
2.81668
-6.9651e-09
2.81223
2.76016
-3.55728e-09
3.17548
2.6932
-9.93862e-09
3.5294
2.61514
-9.62994e-09
3.86928
2.52528
-8.67346e-09
4.18857
2.42296
-7.51836e-09
4.47788
2.30765
-7.30967e-09
4.72363
2.17911
-7.21491e-09
4.90675
2.0379
-7.49733e-09
5.00753
1.88732
-7.61277e-09
5.0304
1.73663
-7.55821e-09
4.99398
1.59315
-7.21019e-09
4.91605
1.46015
-6.42559e-09
4.80972
1.33846
-5.50016e-09
4.68439
1.22796
-4.29261e-09
4.54693
1.12811
-3.22506e-09
4.40239
1.03818
-2.18643e-09
4.25446
0.957333
-1.43389e-09
4.10584
0.884737
-9.01473e-10
3.95845
0.819566
-5.97641e-10
3.81365
0.761042
-5.06971e-10
3.67236
0.708448
-4.89737e-10
3.53519
0.661129
-5.92173e-10
3.40249
0.618498
-6.45732e-10
3.27443
0.580027
-7.56831e-10
3.15107
0.545252
-7.90748e-10
3.03235
0.513759
-8.35893e-10
2.91817
0.485185
-8.06396e-10
2.80838
0.459209
-7.96953e-10
2.70279
0.43555
-7.36681e-10
2.60121
0.413959
-6.97537e-10
2.50343
0.39422
-6.28487e-10
2.40926
0.376139
-5.7933e-10
2.31848
0.359549
-5.13395e-10
2.2309
0.344301
-4.64314e-10
2.14633
0.330263
-4.06188e-10
2.06459
0.31732
-3.61344e-10
1.9855
0.305369
-3.11657e-10
1.90891
0.294319
-2.72362e-10
1.83465
0.284089
-2.30583e-10
1.76259
0.274607
-1.97048e-10
1.69258
0.265809
-1.62224e-10
1.6245
0.257637
-1.3419e-10
1.55823
0.250042
-1.054e-10
1.49366
0.242976
-8.24047e-11
1.43067
0.236399
-5.87541e-11
1.36917
0.230274
-4.02144e-11
1.30907
0.224567
-2.08747e-11
1.25028
0.219249
-6.17511e-12
1.19271
0.214293
9.59723e-12
1.13629
0.209673
2.10471e-11
1.08094
0.205369
3.38929e-11
1.02659
0.20136
4.26296e-11
0.973185
0.197628
5.30915e-11
0.920651
0.194157
5.95787e-11
0.868931
0.190931
6.8096e-11
0.817969
0.187937
7.27212e-11
0.767711
0.185164
7.9644e-11
0.718105
0.182599
8.27186e-11
0.669102
0.180234
8.83154e-11
0.620655
0.178058
9.00899e-11
0.572717
0.176064
9.45589e-11
0.525245
0.174244
9.52224e-11
0.478197
0.172592
9.8699e-11
0.431531
0.171102
9.839e-11
0.385207
0.169768
1.00918e-10
0.339187
0.168586
9.95887e-11
0.293433
0.167552
1.00858e-10
0.247907
0.166662
9.81378e-11
0.202573
0.165913
9.81637e-11
0.157396
0.165303
9.55696e-11
0.11234
0.16483
9.80376e-11
0.0673698
0.164493
9.20423e-11
0.0224512
0.16429
6.7998e-11
-0.0224502
0.164222
-2.51535e-11
-0.0673689
0.16429
1.34043e-10
-0.112339
0.164492
1.0309e-10
-0.157395
0.16483
2.7479e-10
0.165303
3.55009e-10
1.73048
2.55509
2.64044e-08
2.03327
2.51389
2.90604e-08
2.32868
2.46474
2.05988e-08
2.61443
2.40745
2.16099e-08
2.88766
2.34192
1.89352e-08
3.14484
2.26809
1.73003e-08
3.38173
2.18607
1.57766e-08
3.5932
2.09618
1.50827e-08
3.77326
1.99905
1.39643e-08
3.91531
1.89585
1.31876e-08
4.01404
1.78859
1.18747e-08
4.07019
1.68048
1.11054e-08
4.08888
1.57446
9.90563e-09
4.0765
1.47252
9.46589e-09
4.03916
1.37581
8.61871e-09
3.98218
1.28493
8.49447e-09
3.91013
1.20017
7.88562e-09
3.82677
1.12153
7.79632e-09
3.73524
1.04887
7.19612e-09
3.63803
0.981943
6.9361e-09
3.53717
0.920428
6.25154e-09
3.43424
0.863969
5.82233e-09
3.33049
0.812199
5.11579e-09
3.22687
0.76475
4.66654e-09
3.1241
0.721263
3.89344e-09
3.02273
0.6814
3.32887e-09
2.92314
0.64484
3.14899e-09
2.82561
0.611289
2.60784e-09
2.73033
0.580473
2.21786e-09
2.63739
0.552144
1.93916e-09
2.54687
0.526074
1.63193e-09
2.45877
0.502059
1.42881e-09
2.37308
0.479911
1.20078e-09
2.28975
0.459464
1.05137e-09
2.20874
0.440565
8.81772e-10
2.12996
0.423078
7.71211e-10
2.05334
0.406881
6.43709e-10
1.9788
0.391862
5.6137e-10
1.90625
0.377923
4.64874e-10
1.83559
0.364972
4.04003e-10
1.76675
0.352931
3.30869e-10
1.69963
0.341724
2.85503e-10
1.63416
0.331288
2.29967e-10
1.57023
0.321562
1.96044e-10
1.50778
0.312493
1.53858e-10
1.44672
0.304032
1.28344e-10
1.38699
0.296135
9.63318e-11
1.3285
0.288762
7.70432e-11
1.27119
0.281877
5.28383e-11
1.21499
0.275448
3.81797e-11
1.15984
0.269443
2.00033e-11
1.10568
0.263838
8.79789e-12
1.05244
0.258605
-4.71537e-12
1.00008
0.253724
-1.33444e-11
0.94853
0.249174
-2.32438e-11
0.897751
0.244936
-2.9956e-11
0.847689
0.240993
-3.70623e-11
0.798296
0.23733
-4.23613e-11
0.749527
0.233932
-4.73177e-11
0.701339
0.230788
-5.15937e-11
0.653688
0.227885
-5.491e-11
0.606533
0.225213
-5.8466e-11
0.559835
0.222762
-6.05539e-11
0.513555
0.220524
-6.36402e-11
0.467656
0.218491
-6.48342e-11
0.422101
0.216656
-6.76828e-11
0.376855
0.215014
-6.83399e-11
0.331884
0.213557
-7.13322e-11
0.287153
0.212283
-7.21127e-11
0.242629
0.211186
-7.59916e-11
0.198279
0.210263
-7.73693e-11
0.154071
0.209511
-8.13162e-11
0.109972
0.208928
-8.08018e-11
0.0659524
0.208512
-9.23208e-11
0.0219792
0.208263
-1.27112e-10
-0.0219783
0.208179
-2.45646e-10
-0.0659515
0.208263
-5.67192e-11
-0.109971
0.208512
-1.52314e-10
-0.15407
0.208928
5.5268e-11
0.209511
7.42545e-11
1.43805
2.30171
-1.2552e-08
1.685
2.26695
-1.72362e-08
1.92386
2.22588
-1.50084e-08
2.15277
2.17855
-1.75305e-08
2.3696
2.12508
-1.79681e-08
2.57202
2.06567
-1.78094e-08
2.75744
2.00065
-1.68398e-08
2.92315
1.93047
-1.60323e-08
3.0664
1.8558
-1.52219e-08
3.18472
1.77752
-1.47294e-08
3.2765
1.69681
-1.42615e-08
3.34188
1.6151
-1.38422e-08
3.38255
1.53379
-1.33358e-08
3.40104
1.45403
-1.26588e-08
3.40017
1.37668
-1.19065e-08
3.38274
1.30237
-1.09494e-08
3.3514
1.23151
-1.00163e-08
3.30858
1.16435
-8.9597e-09
3.25643
1.10102
-8.02757e-09
3.19685
1.04152
-7.06826e-09
3.13147
0.985813
-6.26478e-09
3.06166
0.933773
-5.4829e-09
2.98861
0.885256
-4.83726e-09
2.91327
0.840087
-4.22605e-09
2.83645
0.798079
-3.70663e-09
2.75881
0.759039
-3.2264e-09
2.68088
0.722771
-2.79282e-09
2.60309
0.689086
-2.63889e-09
2.52576
0.6578
-2.11247e-09
2.44917
0.628737
-1.81568e-09
2.37351
0.601733
-1.6217e-09
2.29894
0.576632
-1.40582e-09
2.22556
0.553288
-1.21309e-09
2.15345
0.531569
-1.04628e-09
2.08267
0.511349
-8.97488e-10
2.01323
0.492515
-7.69822e-10
1.94515
0.474961
-6.56893e-10
1.87842
0.45859
-5.57254e-10
1.81303
0.443314
-4.70129e-10
1.74895
0.429051
-3.94131e-10
1.68616
0.415728
-3.26999e-10
1.6246
0.403276
-2.67999e-10
1.56426
0.391634
-2.15997e-10
1.50508
0.380743
-1.7032e-10
1.44702
0.370554
-1.29817e-10
1.39003
0.361017
-9.43694e-11
1.33408
0.352089
-6.26847e-11
1.27911
0.343731
-3.51927e-11
1.22508
0.335907
-1.02875e-11
1.17194
0.328582
1.09928e-11
1.11966
0.321727
3.06656e-11
1.06818
0.315313
4.70594e-11
1.01747
0.309316
6.26616e-11
0.967486
0.303711
7.51827e-11
0.918183
0.298477
8.75991e-11
0.869524
0.293595
9.703e-11
0.821471
0.289046
1.06933e-10
0.773986
0.284815
1.13882e-10
0.727033
0.280885
1.21788e-10
0.680576
0.277245
1.26721e-10
0.63458
0.27388
1.33013e-10
0.589013
0.27078
1.36288e-10
0.54384
0.267935
1.41241e-10
0.499029
0.265334
1.43117e-10
0.454549
0.262971
1.46932e-10
0.41037
0.260836
1.47619e-10
0.36646
0.258924
1.50441e-10
0.322789
0.257228
1.50064e-10
0.279329
0.255743
1.51901e-10
0.236051
0.254464
1.50478e-10
0.192925
0.253389
1.51812e-10
0.149925
0.252512
1.51031e-10
0.10702
0.251833
1.55537e-10
0.0641848
0.251348
1.53078e-10
0.0213906
0.251057
1.37074e-10
-0.0213899
0.25096
6.33041e-11
-0.0641841
0.251057
1.88464e-10
-0.10702
0.251348
1.81002e-10
-0.149924
0.251833
3.16708e-10
0.252512
3.95865e-10
1.19258
2.09287
1.29157e-09
1.39531
2.06422
7.65928e-10
1.59061
2.03057
-1.0687e-09
1.77708
1.99208
-2.58511e-09
1.95324
1.94892
-3.43275e-09
2.11757
1.90135
-3.46303e-09
2.26851
1.84971
-2.96821e-09
2.40457
1.79441
-2.46173e-09
2.52439
1.73597
-1.99081e-09
2.62691
1.67501
-1.71586e-09
2.71148
1.61224
-1.53187e-09
2.77812
1.54845
-1.40445e-09
2.82749
1.48443
-1.32869e-09
2.86065
1.42086
-1.16977e-09
2.87898
1.35835
-1.0753e-09
2.88395
1.29739
-8.36856e-10
2.87711
1.23835
-7.10942e-10
2.85995
1.18151
-4.3936e-10
2.83389
1.12707
-3.21008e-10
2.80027
1.07515
-7.81364e-11
2.76028
1.0258
-2.75947e-13
2.71502
0.979041
1.80715e-10
2.66542
0.934848
2.10511e-10
2.61235
0.893163
3.27628e-10
2.55652
0.85391
3.21243e-10
2.49856
0.816995
3.84648e-10
2.43902
0.782315
3.48747e-10
2.37834
0.749762
3.78041e-10
2.31692
0.719223
3.25619e-10
2.25507
0.690586
3.25896e-10
2.19306
0.66374
2.77778e-10
2.13112
0.638577
2.40738e-10
2.06941
0.614992
2.17171e-10
2.0081
0.592885
1.97974e-10
1.94728
0.572163
1.49458e-10
1.88706
0.552735
1.31196e-10
1.82751
0.534517
8.91643e-11
1.76867
0.517431
7.13537e-11
1.71058
0.501402
3.583e-11
1.65327
0.486363
2.0075e-11
1.59675
0.472248
-9.01574e-12
1.54102
0.458999
-2.21992e-11
1.4861
0.44656
-4.54528e-11
1.43196
0.434881
-5.60209e-11
1.3786
0.423914
-7.41255e-11
1.326
0.413616
-8.2335e-11
1.27414
0.403945
-9.60857e-11
1.22301
0.394865
-1.02273e-10
1.17258
0.386341
-1.12407e-10
1.12282
0.378342
-1.16939e-10
1.07371
0.370837
-1.24123e-10
1.02522
0.3638
-1.27351e-10
0.977331
0.357206
-1.3217e-10
0.93001
0.351032
-1.34408e-10
0.88323
0.345256
-1.37361e-10
0.836966
0.339859
-1.38876e-10
0.791189
0.334823
-1.40374e-10
0.745872
0.330132
-1.41382e-10
0.700988
0.32577
-1.41765e-10
0.65651
0.321723
-1.42446e-10
0.612412
0.317978
-1.41995e-10
0.568667
0.314525
-1.42499e-10
0.52525
0.311352
-1.4146e-10
0.482135
0.30845
-1.41929e-10
0.439296
0.30581
-1.40522e-10
0.396708
0.303424
-1.41102e-10
0.354347
0.301285
-1.39579e-10
0.312188
0.299387
-1.40543e-10
0.270206
0.297725
-1.39411e-10
0.228378
0.296293
-1.41255e-10
0.186679
0.295088
-1.40821e-10
0.145086
0.294106
-1.42804e-10
0.103574
0.293344
-1.41347e-10
0.0621214
0.292801
-1.50681e-10
0.0207035
0.292475
-1.80823e-10
-0.0207027
0.292366
-2.82741e-10
-0.0621206
0.292475
-1.26351e-10
-0.103574
0.292801
-2.25608e-10
-0.145085
0.293344
-5.3792e-11
0.294105
-5.18378e-11
0.991107
1.91976
5.7728e-09
1.15893
1.89639
4.44179e-09
1.32046
1.86905
3.13101e-09
1.47463
1.8379
1.50609e-09
1.62043
1.80312
9.03363e-10
1.75682
1.76496
6.36435e-10
1.88284
1.72369
7.01978e-10
1.99759
1.67966
5.81295e-10
2.10033
1.63324
5.06366e-10
2.19048
1.58486
2.15336e-10
2.26772
1.535
-1.2744e-11
2.33204
1.48414
-3.54269e-10
2.3837
1.43277
-5.96494e-10
2.42321
1.38135
-8.64759e-10
2.45127
1.33029
-1.03622e-09
2.46869
1.27996
-1.1863e-09
2.47638
1.23066
-1.26693e-09
2.47525
1.18264
-1.30858e-09
2.46623
1.13609
-1.31286e-09
2.4502
1.09117
-1.27758e-09
2.42804
1.04797
-1.23067e-09
2.40052
1.00656
-1.15125e-09
2.36839
0.966977
-1.07672e-09
2.33232
0.929234
-9.78673e-10
2.29291
0.893317
-8.94211e-10
2.25071
0.859195
-7.94643e-10
2.2062
0.826828
-7.12345e-10
2.1598
0.796162
-6.21826e-10
2.11188
0.767138
-5.52419e-10
2.06278
0.73969
-4.1935e-10
2.01277
0.713752
-4.09291e-10
1.96209
0.689254
-3.40661e-10
1.91096
0.666126
-2.86037e-10
1.85954
0.6443
-2.33619e-10
1.808
0.623707
-1.91813e-10
1.75645
0.604282
-1.48573e-10
1.70501
0.585962
-1.15188e-10
1.65375
0.568686
-8.12837e-11
1.60276
0.552395
-5.44336e-11
1.55208
0.537036
-2.7456e-11
1.50178
0.522555
-6.00143e-12
1.45187
0.508903
1.55087e-11
1.4024
0.496035
3.26381e-11
1.35337
0.483906
4.97886e-11
1.30481
0.472476
6.35819e-11
1.25672
0.461706
7.72179e-11
1.20911
0.451561
8.83573e-11
1.16197
0.442007
9.91573e-11
1.11529
0.433013
1.08187e-10
1.06909
0.42455
1.16669e-10
1.02333
0.416591
1.24003e-10
0.978022
0.409111
1.30566e-10
0.933142
0.402086
1.3652e-10
0.888679
0.395495
1.41481e-10
0.844617
0.389318
1.46305e-10
0.80094
0.383536
1.49919e-10
0.757631
0.378132
1.53812e-10
0.714673
0.373089
1.56291e-10
0.672049
0.368394
1.59415e-10
0.629738
0.364033
1.6093e-10
0.587724
0.359993
1.63409e-10
0.545987
0.356262
1.64096e-10
0.504508
0.352831
1.66015e-10
0.463269
0.349689
1.65968e-10
0.422249
0.346829
1.67389e-10
0.381431
0.344242
1.66699e-10
0.340794
0.341922
1.67703e-10
0.300319
0.339862
1.66479e-10
0.259987
0.338056
1.67183e-10
0.21978
0.3365
1.65588e-10
0.179677
0.33519
1.66625e-10
0.13966
0.334122
1.66084e-10
0.09971
0.333294
1.70423e-10
0.0598072
0.332704
1.7017e-10
0.0199327
0.332349
1.62945e-10
-0.0199322
0.332231
1.17621e-10
-0.0598066
0.332349
1.89939e-10
-0.0997095
0.332704
2.02771e-10
-0.13966
0.333294
2.81109e-10
0.334122
3.54046e-10
0.827151
1.77533
2.49287e-09
0.967215
1.75633
1.21235e-09
1.10212
1.73414
1.05957e-09
1.23111
1.70892
-3.86665e-10
1.35341
1.68081
-2.66523e-10
1.46833
1.65004
3.10146e-11
1.57522
1.61681
4.73426e-10
1.67349
1.58139
5.81177e-10
1.76268
1.54405
7.39264e-10
1.84242
1.50511
6.52039e-10
1.91253
1.46489
6.71945e-10
1.97294
1.42372
5.28919e-10
2.02378
1.38193
5.05292e-10
2.06529
1.33984
3.737e-10
2.09784
1.29774
3.44653e-10
2.12191
1.2559
2.45707e-10
2.13801
1.21456
2.2215e-10
2.14672
1.17393
1.56902e-10
2.14863
1.13418
1.40052e-10
2.14435
1.09545
1.0165e-10
2.13447
1.05785
8.96433e-11
2.11956
1.02147
6.92929e-11
2.10017
0.986371
5.91233e-11
2.0768
0.952597
4.88249e-11
2.04995
0.92017
3.79902e-11
2.02005
0.889098
3.15737e-11
1.9875
0.859375
1.84021e-11
1.95268
0.830985
1.21644e-11
1.91591
0.803906
-3.82741e-12
1.87749
0.778106
-1.17709e-11
1.8377
0.753548
-2.8889e-11
1.79676
0.730195
-3.74486e-11
1.75488
0.708002
-5.58615e-11
1.71225
0.686926
-6.53776e-11
1.66904
0.666923
-8.35826e-11
1.62537
0.647946
-9.30977e-11
1.58138
0.629952
-1.10074e-10
1.53717
0.612895
-1.18941e-10
1.49284
0.596733
-1.33972e-10
1.44845
0.581423
-1.41787e-10
1.40408
0.566926
-1.54565e-10
1.35978
0.553202
-1.61069e-10
1.3156
0.540215
-1.71491e-10
1.27158
0.527928
-1.76637e-10
1.22774
0.516308
-1.84778e-10
1.18413
0.505322
-1.88641e-10
1.14075
0.494941
-1.94684e-10
1.09762
0.485136
-1.97405e-10
1.05475
0.47588
-2.01586e-10
1.01215
0.467148
-2.03334e-10
0.969829
0.458914
-2.05913e-10
0.927781
0.451159
-2.06877e-10
0.886008
0.443859
-2.08117e-10
0.844507
0.436996
-2.08472e-10
0.803274
0.430551
-2.08615e-10
0.762302
0.424508
-2.0852e-10
0.721584
0.41885
-2.07782e-10
0.681112
0.413562
-2.07372e-10
0.640875
0.408631
-2.0594e-10
0.600864
0.404044
-2.05331e-10
0.561066
0.39979
-2.03371e-10
0.521471
0.395857
-2.02669e-10
0.482066
0.392236
-2.00341e-10
0.442838
0.388917
-1.99655e-10
0.403774
0.385893
-1.97116e-10
0.36486
0.383156
-1.96568e-10
0.326084
0.380699
-1.94017e-10
0.28743
0.378515
-1.93824e-10
0.248885
0.376601
-1.91655e-10
0.210435
0.374951
-1.92163e-10
0.172065
0.37356
-1.90633e-10
0.13376
0.372427
-1.91367e-10
0.0955065
0.371548
-1.89712e-10
0.0572895
0.370921
-1.96831e-10
0.0190943
0.370545
-2.20002e-10
-0.0190936
0.370419
-2.96776e-10
-0.0572888
0.370545
-1.83729e-10
-0.0955058
0.370921
-2.7426e-10
-0.133759
0.371548
-1.5253e-10
0.372427
-1.66951e-10
0.693958
1.65402
6.27377e-09
0.811737
1.63855
6.5414e-09
0.925377
1.6205
4.98681e-09
1.03429
1.6
4.53623e-09
1.13793
1.57717
4.38449e-09
1.23578
1.55219
4.26736e-09
1.32738
1.52521
4.16843e-09
1.41232
1.49645
3.91726e-09
1.49026
1.46611
3.71669e-09
1.56097
1.4344
3.40991e-09
1.62429
1.40158
3.18594e-09
1.68015
1.36786
2.88428e-09
1.7286
1.33349
2.66561e-09
1.76974
1.2987
2.38748e-09
1.80379
1.26369
2.18199e-09
1.831
1.22869
1.93417e-09
1.85171
1.19386
1.74712e-09
1.86625
1.15938
1.53425e-09
1.87504
1.1254
1.37092e-09
1.87845
1.09203
1.19556e-09
1.87691
1.05939
1.05928e-09
1.87081
1.02756
9.20734e-10
1.86056
0.996621
8.1178e-10
1.84654
0.966616
7.06067e-10
1.82912
0.93759
6.21728e-10
1.80865
0.90957
5.43679e-10
1.78545
0.882573
4.79971e-10
1.75983
0.856606
4.2353e-10
1.73207
0.831668
3.76258e-10
1.70243
0.80775
3.36253e-10
1.67114
0.784838
3.01615e-10
1.63842
0.762915
2.73776e-10
1.60446
0.741958
2.48712e-10
1.56944
0.721943
2.29716e-10
1.53353
0.702841
2.1176e-10
1.49685
0.684625
1.9915e-10
1.45953
0.667265
1.86476e-10
1.4217
0.65073
1.78414e-10
1.38344
0.634991
1.69616e-10
1.34485
0.620017
1.64744e-10
1.306
0.605778
1.58769e-10
1.26695
0.592246
1.56073e-10
1.22778
0.579391
1.52126e-10
1.18852
0.567185
1.50863e-10
1.14922
0.555603
1.48345e-10
1.10993
0.544618
1.47966e-10
1.07066
0.534205
1.4643e-10
1.03146
0.524342
1.46536e-10
0.992334
0.515005
1.45654e-10
0.953309
0.506173
1.45965e-10
0.914398
0.497825
1.45498e-10
0.875613
0.489944
1.45816e-10
0.836963
0.482509
1.45592e-10
0.798454
0.475505
1.45786e-10
0.76009
0.468915
1.45686e-10
0.721874
0.462724
1.45671e-10
0.683806
0.456918
1.45613e-10
0.645885
0.451483
1.45343e-10
0.608109
0.446407
1.45278e-10
0.570474
0.441679
1.44729e-10
0.532976
0.437288
1.4462e-10
0.495609
0.433224
1.43776e-10
0.458367
0.429478
1.43586e-10
0.421243
0.426041
1.42429e-10
0.384229
0.422907
1.4213e-10
0.347318
0.420067
1.40665e-10
0.310501
0.417516
1.40281e-10
0.273768
0.415248
1.38578e-10
0.237111
0.413258
1.38257e-10
0.200519
0.411542
1.36514e-10
0.163984
0.410095
1.36851e-10
0.127495
0.408916
1.36089e-10
0.0910424
0.408001
1.39142e-10
0.0546152
0.407348
1.39872e-10
0.0182035
0.406956
1.39158e-10
-0.0182031
0.406826
1.19506e-10
-0.0546149
0.406956
1.47525e-10
-0.0910421
0.407348
1.74304e-10
-0.127495
0.408001
2.03725e-10
0.408916
2.62043e-10
0.585527
1.55148
-1.27343e-09
0.685246
1.53883
-1.8994e-09
0.781669
1.52408
-1.47949e-09
0.874344
1.50732
-1.91866e-09
0.962851
1.48867
-1.47388e-09
1.0468
1.46823
-1.12056e-09
1.12585
1.44616
-7.75674e-10
1.1997
1.4226
-6.89134e-10
1.26809
1.39771
-5.51855e-10
1.33084
1.37165
-5.64425e-10
1.38782
1.3446
-4.73718e-10
1.43896
1.31672
-4.98923e-10
1.48424
1.2882
-4.21069e-10
1.52373
1.25921
-4.45637e-10
1.55753
1.2299
-3.79695e-10
1.58579
1.20043
-4.0303e-10
1.6087
1.17095
-3.50125e-10
1.6265
1.14159
-3.71599e-10
1.63942
1.11248
-3.30591e-10
1.64774
1.08371
-3.48932e-10
1.65174
1.05539
-3.17558e-10
1.65171
1.0276
-3.31923e-10
1.64793
1.0004
-3.08037e-10
1.64068
0.973858
-3.18436e-10
1.63026
0.948016
-3.00482e-10
1.61691
0.922912
-3.07591e-10
1.60091
0.898573
-2.94497e-10
1.5825
0.875019
-2.99214e-10
1.56191
0.852262
-2.90108e-10
1.53935
0.83031
-2.93234e-10
1.51502
0.809162
-2.8733e-10
1.48912
0.788814
-2.89418e-10
1.46182
0.76926
-2.85934e-10
1.43328
0.750488
-2.87364e-10
1.40364
0.732483
-2.85593e-10
1.37303
0.715231
-2.86446e-10
1.34158
0.698714
-2.85776e-10
1.3094
0.682913
-2.86166e-10
1.27658
0.667807
-2.86046e-10
1.24322
0.653378
-2.85987e-10
1.2094
0.639603
-2.86017e-10
1.17518
0.626462
-2.8552e-10
1.14063
0.613935
-2.85413e-10
1.10582
0.602
-2.845e-10
1.07078
0.590638
-2.84074e-10
1.03557
0.579828
-2.82782e-10
1.00023
0.569551
-2.8193e-10
0.96478
0.559789
-2.80309e-10
0.929262
0.550523
-2.78988e-10
0.893699
0.541736
-2.77092e-10
0.858112
0.533412
-2.75302e-10
0.822523
0.525533
-2.73198e-10
0.786945
0.518086
-2.70974e-10
0.751395
0.511056
-2.68727e-10
0.715881
0.504429
-2.66118e-10
0.680414
0.498191
-2.63786e-10
0.645
0.492331
-2.60849e-10
0.609645
0.486838
-2.58489e-10
0.574353
0.4817
-2.55286e-10
0.539125
0.476907
-2.52953e-10
0.503963
0.47245
-2.49551e-10
0.468867
0.46832
-2.47299e-10
0.433837
0.464509
-2.43777e-10
0.398869
0.461009
-2.41677e-10
0.363963
0.457814
-2.38133e-10
0.329113
0.454916
-2.36284e-10
0.294318
0.452312
-2.32876e-10
0.259571
0.449995
-2.31465e-10
0.224869
0.44796
-2.28513e-10
0.190206
0.446205
-2.27825e-10
0.155577
0.444725
-2.25651e-10
0.120975
0.443518
-2.25618e-10
0.0863951
0.442581
-2.24346e-10
0.0518309
0.441912
-2.29522e-10
0.0172761
0.441511
-2.45163e-10
-0.0172756
0.441377
-2.95026e-10
-0.0518304
0.441511
-2.292e-10
-0.0863946
0.441912
-3.03702e-10
-0.120974
0.442581
-2.34565e-10
0.443518
-2.55608e-10
0.496866
1.46427
2.29148e-09
0.581821
1.45388
2.99567e-09
0.664152
1.44175
2.06406e-09
0.743506
1.42797
2.23391e-09
0.819558
1.41261
2.27302e-09
0.892006
1.39579
2.24033e-09
0.960582
1.37759
2.17232e-09
1.02505
1.35813
2.03507e-09
1.08522
1.33754
1.94257e-09
1.14093
1.31594
1.81196e-09
1.19206
1.29346
1.74102e-09
1.23855
1.27023
1.63133e-09
1.28037
1.24638
1.57217e-09
1.31753
1.22205
1.47149e-09
1.35008
1.19735
1.41189e-09
1.37811
1.1724
1.31382e-09
1.40172
1.14733
1.25027e-09
1.42107
1.12225
1.1551e-09
1.4363
1.09724
1.08945e-09
1.44761
1.0724
1.00005e-09
1.45519
1.04781
9.35679e-10
1.45924
1.02355
8.54872e-10
1.45995
0.999684
7.94753e-10
1.45755
0.97626
7.24248e-10
1.45224
0.953328
6.7029e-10
1.44422
0.930929
6.10598e-10
1.4337
0.909096
5.63667e-10
1.42086
0.887854
5.14389e-10
1.4059
0.867224
4.74568e-10
1.38899
0.84722
4.34753e-10
1.3703
0.827852
4.0163e-10
1.34999
0.809127
3.70057e-10
1.3282
0.791045
3.42952e-10
1.30508
0.773606
3.18337e-10
1.28076
0.756805
2.9646e-10
1.25536
0.740636
2.77573e-10
1.22898
0.72509
2.60076e-10
1.20174
0.710158
2.45809e-10
1.17372
0.695827
2.31982e-10
1.14501
0.682086
2.21313e-10
1.11569
0.668921
2.10434e-10
1.08584
0.656318
2.02568e-10
1.05551
0.644263
1.94044e-10
1.02477
0.632741
1.88286e-10
0.993666
0.621739
1.81608e-10
0.962254
0.61124
1.77402e-10
0.930574
0.601231
1.72149e-10
0.898665
0.591698
1.69049e-10
0.866562
0.582626
1.64881e-10
0.834295
0.574003
1.62543e-10
0.801893
0.565814
1.59191e-10
0.769379
0.558047
1.57347e-10
0.736775
0.55069
1.54596e-10
0.704099
0.543731
1.53045e-10
0.671369
0.537159
1.50731e-10
0.638598
0.530962
1.49325e-10
0.605798
0.525131
1.47328e-10
0.572979
0.519656
1.45962e-10
0.540151
0.514528
1.44188e-10
0.507321
0.509738
1.42782e-10
0.474493
0.505277
1.41159e-10
0.441674
0.501139
1.39655e-10
0.408866
0.497316
1.3812e-10
0.376072
0.493802
1.36468e-10
0.343295
0.490591
1.34969e-10
0.310534
0.487677
1.33141e-10
0.27779
0.485056
1.31697e-10
0.245063
0.482722
1.29753e-10
0.212352
0.480671
1.28534e-10
0.179656
0.478901
1.26692e-10
0.146972
0.477408
1.26241e-10
0.1143
0.47619
1.25208e-10
0.0816366
0.475244
1.26939e-10
0.0489795
0.474569
1.28283e-10
0.0163261
0.474164
1.3196e-10
-0.0163259
0.474029
1.30258e-10
-0.0489792
0.474164
1.25339e-10
-0.0816364
0.474569
1.61978e-10
-0.1143
0.475244
1.54333e-10
0.47619
2.06029e-10
0.423958
1.38969
-2.18035e-09
0.496738
1.3811
-2.50543e-09
0.567425
1.37106
-2.01001e-09
0.63574
1.35965
-2.16104e-09
0.701424
1.34693
-1.81405e-09
0.764239
1.33297
-1.56181e-09
0.823971
1.31786
-1.33747e-09
0.880431
1.30167
-1.2636e-09
0.933461
1.28452
-1.15704e-09
0.982929
1.26648
-1.12758e-09
1.02873
1.24766
-1.03305e-09
1.07081
1.22816
-1.00279e-09
1.10911
1.20808
-9.09957e-10
1.14362
1.18753
-8.80087e-10
1.17437
1.16659
-7.94695e-10
1.2014
1.14538
-7.68701e-10
1.22477
1.12396
-6.93962e-10
1.24457
1.10245
-6.72584e-10
1.2609
1.0809
-6.09028e-10
1.27389
1.05941
-5.91661e-10
1.28366
1.03804
-5.38605e-10
1.29036
1.01686
-5.24375e-10
1.29413
0.995914
-4.80726e-10
1.29512
0.975265
-4.68907e-10
1.2935
0.954954
-4.33483e-10
1.28941
0.935021
-4.2354e-10
1.283
0.9155
-3.95157e-10
1.27444
0.896419
-3.86695e-10
1.26386
0.877802
-3.64217e-10
1.25141
0.859669
-3.56943e-10
1.23723