/*--------------------------------*- C++ -*----------------------------------*\
| =========                 |                                                 |
| \\      /  F ield         | OpenFOAM: The Open Source CFD Toolbox           |
|  \\    /   O peration     | Version:  2306                                  |
|   \\  /    A nd           | Website:  www.openfoam.com                      |
|    \\/     M anipulation  |                                                 |
\*---------------------------------------------------------------------------*/
FoamFile
{
    version     2.0;
    format      ascii;
    arch        "LSB;label=32;scalar=64";
    class       volVectorField;
    location    "12.5";
    object      U;
}
// * * * * * * * * * * * * * * * * * * * * * * * * * * * * * * * * * * * * * //

dimensions      [0 1 -1 0 0 0 0];

internalField   nonuniform List<vector> 
14400
(
(0.0968494 0.431936 1.60458e-09)
(0.118255 0.429664 1.67111e-09)
(0.14092 0.426609 7.40387e-10)
(0.165236 0.422499 6.99299e-10)
(0.191726 0.416936 6.46676e-10)
(0.22101 0.409329 5.9543e-10)
(0.253639 0.398725 6.40778e-10)
(0.291602 0.383194 3.88372e-10)
(0.346476 0.356823 5.57404e-10)
(0.419707 0.301405 2.77395e-10)
(0.395138 0.181555 1.76909e-10)
(0.333891 0.114142 1.32405e-10)
(0.281021 0.0736985 1.07581e-10)
(0.24453 0.0497038 4.48036e-11)
(0.217762 0.0355395 -1.44572e-11)
(0.196289 0.0266052 -2.78655e-11)
(0.178506 0.0205815 -6.401e-11)
(0.163658 0.016312 -6.49194e-11)
(0.151116 0.0131803 -6.68901e-11)
(0.140379 0.0108353 -6.38457e-11)
(0.131078 0.00905531 -4.91088e-11)
(0.122932 0.00768852 -4.99468e-11)
(0.115721 0.00662674 -3.44523e-11)
(0.109278 0.00579189 -4.12893e-11)
(0.103471 0.00512713 -3.10581e-11)
(0.0981954 0.00459086 -4.10909e-11)
(0.0933687 0.00415251 -3.55324e-11)
(0.0889249 0.00378946 -4.52365e-11)
(0.0848105 0.00348495 -4.20099e-11)
(0.080982 0.00322645 -4.93812e-11)
(0.0774036 0.00300452 -4.68397e-11)
(0.0740452 0.00281203 -5.14966e-11)
(0.070882 0.00264353 -4.89915e-11)
(0.0678928 0.00249481 -5.14263e-11)
(0.0650596 0.00236259 -4.88836e-11)
(0.0623667 0.00224429 -4.98039e-11)
(0.0598007 0.00213786 -4.73364e-11)
(0.05735 0.00204164 -4.73456e-11)
(0.0550042 0.00195428 -4.50665e-11)
(0.0527542 0.00187468 -4.45823e-11)
(0.0505919 0.00180191 -4.25553e-11)
(0.0485102 0.0017352 -4.18342e-11)
(0.0465025 0.00167391 -4.00782e-11)
(0.0445632 0.00161746 -3.92645e-11)
(0.0426869 0.00156539 -3.77698e-11)
(0.0408689 0.00151727 -3.69385e-11)
(0.0391048 0.00147275 -3.56813e-11)
(0.0373907 0.00143151 -3.4868e-11)
(0.035723 0.00139327 -3.38191e-11)
(0.0340983 0.00135778 -3.3038e-11)
(0.0325136 0.00132484 -3.21679e-11)
(0.030966 0.00129425 -3.14225e-11)
(0.029453 0.00126583 -3.07037e-11)
(0.0279719 0.00123943 -2.99929e-11)
(0.0265207 0.00121492 -2.94014e-11)
(0.0250971 0.00119217 -2.87225e-11)
(0.0236992 0.00117107 -2.82381e-11)
(0.022325 0.00115152 -2.75887e-11)
(0.0209729 0.00113344 -2.71947e-11)
(0.0196411 0.00111674 -2.65733e-11)
(0.0183281 0.00110135 -2.6257e-11)
(0.0170324 0.0010872 -2.56637e-11)
(0.0157526 0.00107423 -2.5416e-11)
(0.0144872 0.0010624 -2.48533e-11)
(0.013235 0.00105166 -2.46685e-11)
(0.0119948 0.00104196 -2.41427e-11)
(0.0107653 0.00103326 -2.40204e-11)
(0.00954534 0.00102554 -2.35438e-11)
(0.00833382 0.00101876 -2.34996e-11)
(0.00712965 0.0010129 -2.30895e-11)
(0.00593173 0.00100793 -2.31705e-11)
(0.00473903 0.00100383 -2.2843e-11)
(0.00355052 0.0010006 -2.30015e-11)
(0.00236519 0.000998224 -2.27166e-11)
(0.00118213 0.000996705 -2.28581e-11)
(-1.46508e-08 0.000996161 -2.18048e-11)
(-0.00118216 0.000996704 -2.45112e-11)
(-0.00236522 0.000998221 -5.62094e-12)
(-0.00355054 0.0010006 -6.08163e-11)
(-0.00473906 0.00100383 -1.43909e-12)
(0.0972313 0.436132 1.19435e-09)
(0.117822 0.43236 6.42585e-10)
(0.139065 0.427489 4.44066e-10)
(0.16106 0.421244 3.81488e-10)
(0.183886 0.413238 3.96997e-10)
(0.20757 0.402901 3.69423e-10)
(0.232009 0.389313 3.90797e-10)
(0.257019 0.370822 3.53599e-10)
(0.282823 0.344418 2.85816e-10)
(0.306734 0.30411 2.47328e-10)
(0.313132 0.240293 1.74394e-10)
(0.303713 0.183439 1.31369e-10)
(0.288224 0.143381 4.37054e-11)
(0.272191 0.115386 1.13824e-11)
(0.256576 0.0947449 -5.98377e-11)
(0.241711 0.0789728 -7.75556e-11)
(0.227823 0.0666776 -1.04236e-10)
(0.214972 0.056957 -1.15378e-10)
(0.203112 0.0491886 -1.00754e-10)
(0.192171 0.0429238 -1.09569e-10)
(0.18207 0.0378269 -7.74287e-11)
(0.172734 0.0336422 -8.75271e-11)
(0.164094 0.0301742 -5.77478e-11)
(0.156081 0.0272732 -7.08622e-11)
(0.148636 0.0248243 -5.00275e-11)
(0.141701 0.0227387 -6.40011e-11)
(0.135227 0.0209476 -5.10712e-11)
(0.129169 0.0193975 -6.32541e-11)
(0.123485 0.018046 -5.50416e-11)
(0.118139 0.0168598 -6.40231e-11)
(0.113099 0.0158122 -5.80762e-11)
(0.108337 0.0148818 -6.38244e-11)
(0.103825 0.0140512 -5.88938e-11)
(0.0995414 0.0133063 -6.21083e-11)
(0.0954657 0.0126353 -5.77342e-11)
(0.0915796 0.0120285 -5.92486e-11)
(0.0878667 0.011478 -5.53166e-11)
(0.0843125 0.0109768 -5.581e-11)
(0.0809038 0.0105193 -5.2308e-11)
(0.0776288 0.0101006 -5.22405e-11)
(0.0744769 0.00971644 -4.91639e-11)
(0.0714385 0.00936329 -4.88139e-11)
(0.0685049 0.00903801 -4.61434e-11)
(0.0656682 0.00873789 -4.56662e-11)
(0.0629212 0.00846058 -4.33687e-11)
(0.0602573 0.008204 -4.28453e-11)
(0.0576705 0.00796634 -4.08807e-11)
(0.0551552 0.00774599 -4.03501e-11)
(0.0527065 0.00754154 -3.86762e-11)
(0.0503195 0.0073517 -3.81555e-11)
(0.04799 0.00717537 -3.67313e-11)
(0.0457139 0.00701155 -3.62265e-11)
(0.0434875 0.00685932 -3.50145e-11)
(0.0413074 0.00671789 -3.4527e-11)
(0.0391702 0.00658655 -3.34942e-11)
(0.0370729 0.00646463 -3.30235e-11)
(0.0350126 0.00635156 -3.21419e-11)
(0.0329868 0.00624681 -3.16872e-11)
(0.0309927 0.00614992 -3.09334e-11)
(0.0290281 0.00606044 -3.04951e-11)
(0.0270907 0.00597801 -2.98507e-11)
(0.0251782 0.00590227 -2.94304e-11)
(0.0232887 0.00583292 -2.88822e-11)
(0.0214201 0.00576967 -2.84838e-11)
(0.0195705 0.00571228 -2.80231e-11)
(0.0177382 0.00566052 -2.7654e-11)
(0.0159214 0.0056142 -2.72774e-11)
(0.0141184 0.00557314 -2.69493e-11)
(0.0123275 0.00553719 -2.66674e-11)
(0.0105471 0.00550621 -2.6396e-11)
(0.00877571 0.0054801 -2.62408e-11)
(0.00701173 0.00545876 -2.6042e-11)
(0.00525365 0.00544211 -2.59677e-11)
(0.00350001 0.00543011 -2.57729e-11)
(0.00174948 0.00542279 -2.57599e-11)
(9.37331e-09 0.00542031 -2.50206e-11)
(-0.00174946 0.00542279 -2.68624e-11)
(-0.00349999 0.00543011 -1.20156e-11)
(-0.00525363 0.0054421 -5.45593e-11)
(-0.00701171 0.00545875 -1.63605e-11)
(0.0866288 0.357747 -7.04598e-11)
(0.10448 0.352473 -1.99823e-10)
(0.12257 0.345925 -1.74866e-10)
(0.140891 0.337918 -1.75395e-10)
(0.159398 0.328223 -1.7692e-10)
(0.177992 0.31655 -1.58267e-10)
(0.196469 0.302519 -1.3686e-10)
(0.214434 0.285599 -1.14048e-10)
(0.231209 0.265018 -1.22816e-10)
(0.245337 0.239638 -1.17807e-10)
(0.253248 0.209265 -1.71544e-10)
(0.253831 0.180557 -1.59894e-10)
(0.249085 0.156293 -2.3608e-10)
(0.241482 0.136196 -2.09155e-10)
(0.232512 0.119468 -2.70507e-10)
(0.222954 0.105442 -2.41411e-10)
(0.213256 0.0936069 -2.67626e-10)
(0.20369 0.0835613 -2.33915e-10)
(0.194418 0.074992 -2.28062e-10)
(0.185531 0.0676489 -1.96006e-10)
(0.177074 0.0613289 -1.7485e-10)
(0.169064 0.0558655 -1.49623e-10)
(0.161496 0.0511221 -1.2769e-10)
(0.154354 0.046986 -1.11226e-10)
(0.147617 0.0433642 -9.48027e-11)
(0.141259 0.0401793 -8.5676e-11)
(0.135255 0.0373673 -7.50997e-11)
(0.129577 0.0348746 -7.06148e-11)
(0.124201 0.0326563 -6.40581e-11)
(0.119103 0.030675 -6.19469e-11)
(0.114261 0.0288989 -5.76337e-11)
(0.109654 0.0273015 -5.65569e-11)
(0.105263 0.02586 -5.33883e-11)
(0.101072 0.0245552 -5.27294e-11)
(0.0970655 0.0233708 -5.01597e-11)
(0.0932281 0.0222927 -4.96822e-11)
(0.0895473 0.021309 -4.74731e-11)
(0.0860112 0.0204091 -4.70922e-11)
(0.082609 0.0195842 -4.51423e-11)
(0.0793307 0.0188265 -4.48196e-11)
(0.0761674 0.0181291 -4.30813e-11)
(0.0731106 0.0174863 -4.2792e-11)
(0.0701529 0.0168928 -4.12378e-11)
(0.0672872 0.016344 -4.09637e-11)
(0.064507 0.015836 -3.95737e-11)
(0.0618065 0.0153652 -3.93029e-11)
(0.0591802 0.0149285 -3.80607e-11)
(0.056623 0.014523 -3.77868e-11)
(0.0541302 0.0141464 -3.66768e-11)
(0.0516975 0.0137963 -3.63975e-11)
(0.0493207 0.0134708 -3.54052e-11)
(0.0469962 0.0131681 -3.51208e-11)
(0.0447203 0.0128867 -3.42327e-11)
(0.0424897 0.012625 -3.39453e-11)
(0.0403014 0.0123818 -3.31489e-11)
(0.0381524 0.012156 -3.28611e-11)
(0.0360399 0.0119465 -3.21452e-11)
(0.0339614 0.0117523 -3.18601e-11)
(0.0319144 0.0115726 -3.12155e-11)
(0.0298965 0.0114066 -3.09364e-11)
(0.0279055 0.0112536 -3.03561e-11)
(0.0259393 0.0111131 -3.00876e-11)
(0.0239959 0.0109843 -2.95672e-11)
(0.0220733 0.0108669 -2.93153e-11)
(0.0201697 0.0107604 -2.88529e-11)
(0.0182832 0.0106644 -2.8627e-11)
(0.0164121 0.0105784 -2.82251e-11)
(0.0145547 0.0105023 -2.80394e-11)
(0.0127094 0.0104357 -2.77141e-11)
(0.0108746 0.0103783 -2.75853e-11)
(0.0090487 0.0103301 -2.73781e-11)
(0.00723019 0.0102907 -2.73292e-11)
(0.00541754 0.0102602 -2.71707e-11)
(0.0036093 0.0102383 -2.71857e-11)
(0.00180415 0.0102251 -2.69846e-11)
(2.00192e-08 0.0102207 -2.64132e-11)
(-0.00180411 0.0102251 -2.88055e-11)
(-0.00360926 0.0102383 -1.04858e-11)
(-0.0054175 0.0102602 -6.42396e-11)
(-0.00723015 0.0102907 -1.03208e-11)
(0.0747258 0.322338 -1.65945e-09)
(0.0895789 0.317223 -7.38146e-10)
(0.104325 0.310975 -5.48349e-10)
(0.118887 0.303492 -4.38243e-10)
(0.133157 0.294658 -3.96708e-10)
(0.146979 0.284345 -3.58688e-10)
(0.160135 0.272413 -3.26666e-10)
(0.172322 0.258723 -2.9869e-10)
(0.183104 0.243161 -2.83257e-10)
(0.191824 0.225709 -2.54354e-10)
(0.197527 0.206731 -2.65984e-10)
(0.199859 0.187753 -2.32449e-10)
(0.199403 0.169952 -2.64472e-10)
(0.196978 0.153763 -2.27572e-10)
(0.193213 0.139231 -2.5888e-10)
(0.188538 0.126274 -2.20772e-10)
(0.183267 0.114766 -2.35393e-10)
(0.177629 0.10457 -1.98402e-10)
(0.171794 0.0955474 -1.95385e-10)
(0.165887 0.0875651 -1.63181e-10)
(0.159997 0.0804993 -1.5085e-10)
(0.154188 0.0742376 -1.26377e-10)
(0.148504 0.068679 -1.1298e-10)
(0.142974 0.0637347 -9.68021e-11)
(0.137617 0.0593267 -8.64045e-11)
(0.132441 0.0553873 -7.68706e-11)
(0.127452 0.0518574 -6.99636e-11)
(0.12265 0.0486864 -6.47649e-11)
(0.118029 0.0458302 -6.04326e-11)
(0.113587 0.043251 -5.75453e-11)
(0.109315 0.0409159 -5.46617e-11)
(0.105206 0.0387967 -5.28396e-11)
(0.101252 0.0368687 -5.06998e-11)
(0.0974456 0.0351108 -4.93169e-11)
(0.0937776 0.0335044 -4.75289e-11)
(0.0902405 0.0320334 -4.63302e-11)
(0.0868265 0.0306838 -4.47357e-11)
(0.0835282 0.0294434 -4.36409e-11)
(0.0803386 0.0283012 -4.21802e-11)
(0.0772511 0.0272478 -4.11713e-11)
(0.0742593 0.0262749 -3.98268e-11)
(0.0713574 0.0253752 -3.89048e-11)
(0.0685396 0.0245419 -3.76722e-11)
(0.0658009 0.0237695 -3.68389e-11)
(0.0631362 0.0230527 -3.57158e-11)
(0.0605409 0.0223869 -3.49702e-11)
(0.0580108 0.021768 -3.39529e-11)
(0.0555417 0.0211924 -3.32905e-11)
(0.0531298 0.0206568 -3.2373e-11)
(0.0507714 0.0201582 -3.1787e-11)
(0.0484633 0.019694 -3.09616e-11)
(0.0462022 0.0192618 -3.04439e-11)
(0.0439851 0.0188594 -2.97016e-11)
(0.0418092 0.0184849 -2.92436e-11)
(0.0396717 0.0181365 -2.85752e-11)
(0.0375701 0.0178127 -2.81686e-11)
(0.035502 0.017512 -2.75654e-11)
(0.0334651 0.0172331 -2.72033e-11)
(0.0314572 0.0169748 -2.66582e-11)
(0.0294761 0.0167361 -2.6335e-11)
(0.0275199 0.016516 -2.58428e-11)
(0.0255867 0.0163137 -2.55551e-11)
(0.0236747 0.0161283 -2.51131e-11)
(0.0217819 0.0159592 -2.48599e-11)
(0.0199068 0.0158057 -2.44687e-11)
(0.0180477 0.0156673 -2.42528e-11)
(0.0162029 0.0155434 -2.39162e-11)
(0.014371 0.0154336 -2.3744e-11)
(0.0125503 0.0153376 -2.34704e-11)
(0.0107395 0.015255 -2.33472e-11)
(0.00893694 0.0151855 -2.31425e-11)
(0.00714132 0.0151289 -2.30636e-11)
(0.0053512 0.0150849 -2.2848e-11)
(0.00356521 0.0150535 -2.27029e-11)
(0.00178214 0.0150347 -2.2444e-11)
(1.97634e-08 0.0150284 -2.18785e-11)
(-0.0017821 0.0150347 -2.30812e-11)
(-0.00356517 0.0150535 -1.08119e-11)
(-0.00535116 0.0150849 -4.62021e-11)
(-0.00714128 0.0151289 -1.61008e-11)
(0.0626049 0.284953 1.49128e-09)
(0.0747469 0.280228 7.38233e-10)
(0.0866373 0.274563 7.68826e-10)
(0.0981948 0.267923 6.84794e-10)
(0.109318 0.260278 7.05406e-10)
(0.119881 0.251605 6.54425e-10)
(0.12973 0.241897 6.58852e-10)
(0.138681 0.231172 6.07539e-10)
(0.146514 0.219491 5.9837e-10)
(0.152967 0.206986 5.45746e-10)
(0.157766 0.193928 5.1602e-10)
(0.160806 0.180808 4.62664e-10)
(0.162231 0.168063 4.15959e-10)
(0.162294 0.155952 3.64247e-10)
(0.161252 0.144602 3.14719e-10)
(0.159333 0.134065 2.68702e-10)
(0.156732 0.124349 2.28902e-10)
(0.153615 0.115434 1.90897e-10)
(0.150118 0.107284 1.64652e-10)
(0.14635 0.0998523 1.34273e-10)
(0.142403 0.0930859 1.18731e-10)
(0.138345 0.0869314 9.41992e-11)
(0.134233 0.0813359 8.48739e-11)
(0.13011 0.0762484 6.44923e-11)
(0.126009 0.071621 5.79615e-11)
(0.121953 0.0674093 4.18424e-11)
(0.117963 0.0635725 3.72152e-11)
(0.114049 0.0600734 2.34113e-11)
(0.110221 0.0568785 1.96062e-11)
(0.106486 0.0539575 8.80662e-12)
(0.102845 0.0512832 6.11197e-12)
(0.0993008 0.0488314 -2.3123e-12)
(0.0958526 0.0465804 -4.3519e-12)
(0.0924993 0.0445107 -1.06394e-11)
(0.089239 0.0426051 -1.19464e-11)
(0.086069 0.0408481 -1.66256e-11)
(0.0829864 0.0392261 -1.74113e-11)
(0.0799879 0.0377267 -2.08567e-11)
(0.07707 0.0363389 -2.12602e-11)
(0.0742293 0.0350531 -2.37704e-11)
(0.0714622 0.0338603 -2.3895e-11)
(0.0687653 0.0327529 -2.57144e-11)
(0.066135 0.0317236 -2.56448e-11)
(0.0635681 0.0307663 -2.6953e-11)
(0.0610613 0.0298752 -2.67528e-11)
(0.0586114 0.0290453 -2.76852e-11)
(0.0562153 0.0282719 -2.74012e-11)
(0.0538701 0.0275508 -2.80565e-11)
(0.0515731 0.0268784 -2.7722e-11)
(0.0493214 0.0262512 -2.81733e-11)
(0.0471126 0.0256662 -2.78111e-11)
(0.0449441 0.0251206 -2.81112e-11)
(0.0428136 0.0246119 -2.77368e-11)
(0.0407187 0.0241377 -2.79247e-11)
(0.0386574 0.023696 -2.75481e-11)
(0.0366275 0.023285 -2.76521e-11)
(0.034627 0.0229029 -2.72798e-11)
(0.0326541 0.0225481 -2.73213e-11)
(0.0307068 0.0222192 -2.69581e-11)
(0.0287833 0.0219151 -2.69538e-11)
(0.026882 0.0216344 -2.66036e-11)
(0.0250012 0.0213762 -2.65669e-11)
(0.0231393 0.0211394 -2.62339e-11)
(0.0212948 0.0209233 -2.6177e-11)
(0.0194661 0.0207271 -2.58669e-11)
(0.0176518 0.0205501 -2.58035e-11)
(0.0158504 0.0203916 -2.55255e-11)
(0.0140606 0.0202511 -2.54715e-11)
(0.012281 0.0201282 -2.5246e-11)
(0.0105103 0.0200225 -2.52183e-11)
(0.00874714 0.0199335 -2.50813e-11)
(0.00699025 0.019861 -2.51058e-11)
(0.00523833 0.0198048 -2.49656e-11)
(0.00349017 0.0197647 -2.5062e-11)
(0.00174467 0.0197406 -2.47678e-11)
(1.75112e-08 0.0197326 -2.43433e-11)
(-0.00174463 0.0197406 -2.66726e-11)
(-0.00349014 0.0197647 -8.35743e-12)
(-0.0052383 0.0198048 -6.22961e-11)
(-0.00699021 0.019861 -6.15679e-12)
(0.0520985 0.255634 5.24514e-11)
(0.0620417 0.251619 5.53899e-11)
(0.0716987 0.246859 1.29595e-10)
(0.0810001 0.241352 1.55406e-10)
(0.0898668 0.235104 1.6836e-10)
(0.09821 0.228131 1.49556e-10)
(0.105932 0.220462 1.4978e-10)
(0.112926 0.212147 1.23696e-10)
(0.119082 0.20326 1.20176e-10)
(0.124293 0.193912 9.65422e-11)
(0.128469 0.184257 8.54037e-11)
(0.131577 0.174497 6.58399e-11)
(0.13366 0.164826 4.73838e-11)
(0.134807 0.155396 3.26503e-11)
(0.135129 0.146318 1.26318e-11)
(0.134739 0.137664 3.35014e-12)
(0.133747 0.129478 -1.22317e-11)
(0.132253 0.121784 -1.63016e-11)
(0.130349 0.114586 -2.55278e-11)
(0.128115 0.107879 -2.65846e-11)
(0.12562 0.101647 -3.10533e-11)
(0.122925 0.0958688 -3.09413e-11)
(0.12008 0.090521 -3.25958e-11)
(0.117127 0.0855766 -3.23229e-11)
(0.114101 0.0810084 -3.24291e-11)
(0.11103 0.0767895 -3.19575e-11)
(0.107938 0.0728935 -3.11889e-11)
(0.104845 0.0692952 -3.09191e-11)
(0.101764 0.0659708 -3.04744e-11)
(0.0987071 0.0628981 -3.02642e-11)
(0.0956843 0.0600564 -2.96667e-11)
(0.092702 0.0574266 -2.97095e-11)
(0.0897653 0.0549911 -2.90879e-11)
(0.086878 0.0527338 -2.90175e-11)
(0.0840423 0.05064 -2.83835e-11)
(0.0812597 0.0486963 -2.82317e-11)
(0.078531 0.0468904 -2.75991e-11)
(0.0758562 0.0452114 -2.73729e-11)
(0.0732348 0.0436489 -2.67542e-11)
(0.070666 0.042194 -2.64813e-11)
(0.0681488 0.0408382 -2.58802e-11)
(0.0656817 0.0395739 -2.55863e-11)
(0.0632634 0.0383943 -2.50114e-11)
(0.0608921 0.0372932 -2.47173e-11)
(0.0585661 0.0362647 -2.41738e-11)
(0.0562838 0.0353039 -2.38941e-11)
(0.0540432 0.0344059 -2.33848e-11)
(0.0518426 0.0335664 -2.31278e-11)
(0.0496802 0.0327816 -2.26536e-11)
(0.0475543 0.032048 -2.24227e-11)
(0.0454629 0.0313622 -2.19824e-11)
(0.0434045 0.0307213 -2.17777e-11)
(0.0413773 0.0301226 -2.13693e-11)
(0.0393796 0.0295637 -2.11888e-11)
(0.0374099 0.0290422 -2.08095e-11)
(0.0354664 0.0285563 -2.06501e-11)
(0.0335478 0.0281038 -2.0297e-11)
(0.0316524 0.0276833 -2.01555e-11)
(0.0297789 0.027293 -1.98264e-11)
(0.0279258 0.0269317 -1.97002e-11)
(0.0260916 0.0265979 -1.93939e-11)
(0.0242751 0.0262906 -1.92815e-11)
(0.0224749 0.0260086 -1.89986e-11)
(0.0206897 0.025751 -1.89004e-11)
(0.0189183 0.0255169 -1.86439e-11)
(0.0171594 0.0253056 -1.8563e-11)
(0.0154117 0.0251164 -1.83376e-11)
(0.0136742 0.0249487 -1.82787e-11)
(0.0119456 0.0248018 -1.80879e-11)
(0.0102248 0.0246754 -1.80531e-11)
(0.0085106 0.024569 -1.78844e-11)
(0.00680191 0.0244824 -1.78672e-11)
(0.0050976 0.0244152 -1.76224e-11)
(0.0033966 0.0243673 -1.75361e-11)
(0.00169795 0.0243385 -1.71877e-11)
(1.48198e-08 0.0243289 -1.67795e-11)
(-0.00169792 0.0243385 -1.73836e-11)
(-0.00339657 0.0243673 -8.85496e-12)
(-0.00509757 0.0244152 -3.30453e-11)
(-0.00680188 0.0244824 -1.54274e-11)
(0.0432382 0.231479 2.18775e-10)
(0.0514174 0.228143 2.13102e-11)
(0.0593288 0.224217 1.24784e-10)
(0.0669185 0.219715 1.16409e-10)
(0.0741289 0.214655 1.42225e-10)
(0.0809002 0.209064 1.29892e-10)
(0.0871707 0.202978 1.44053e-10)
(0.0928795 0.196448 1.3143e-10)
(0.097969 0.189535 1.40989e-10)
(0.102389 0.182316 1.29461e-10)
(0.106104 0.174885 1.32474e-10)
(0.109101 0.167345 1.20669e-10)
(0.111394 0.159801 1.16484e-10)
(0.11302 0.152343 1.04014e-10)
(0.114027 0.145045 9.53043e-11)
(0.114475 0.137968 8.29196e-11)
(0.114423 0.131154 7.32409e-11)
(0.113932 0.124633 6.17738e-11)
(0.113061 0.118426 5.34074e-11)
(0.111865 0.112542 4.31846e-11)
(0.110393 0.106985 3.67875e-11)
(0.108691 0.10175 2.78066e-11)
(0.1068 0.0968305 2.31693e-11)
(0.104755 0.0922166 1.54038e-11)
(0.102588 0.0878955 1.22044e-11)
(0.100324 0.0838531 5.54464e-12)
(0.0979876 0.0800746 3.06154e-12)
(0.095598 0.0765448 -2.57098e-12)
(0.0931717 0.0732487 -4.27704e-12)
(0.0907228 0.0701714 -8.72221e-12)
(0.0882628 0.0672985 -9.85208e-12)
(0.0858012 0.0646164 -1.32313e-11)
(0.0833461 0.062112 -1.40963e-11)
(0.0809038 0.0597729 -1.67922e-11)
(0.0784794 0.0575876 -1.72605e-11)
(0.076077 0.0555454 -1.92434e-11)
(0.0736998 0.0536361 -1.94763e-11)
(0.07135 0.0518505 -2.09227e-11)
(0.0690295 0.0501799 -2.09843e-11)
(0.0667395 0.0486163 -2.20209e-11)
(0.0644807 0.0471524 -2.1962e-11)
(0.0622535 0.0457813 -2.26945e-11)
(0.060058 0.0444967 -2.25531e-11)
(0.0578939 0.043293 -2.30625e-11)
(0.055761 0.0421648 -2.28664e-11)
(0.0536587 0.0411072 -2.32154e-11)
(0.0515862 0.0401157 -2.29849e-11)
(0.0495429 0.0391862 -2.32185e-11)
(0.0475277 0.0383148 -2.29675e-11)
(0.0455399 0.0374982 -2.31178e-11)
(0.0435783 0.0367331 -2.28559e-11)
(0.041642 0.0360165 -2.29456e-11)
(0.0397299 0.0353458 -2.2679e-11)
(0.037841 0.0347184 -2.27242e-11)
(0.035974 0.034132 -2.2457e-11)
(0.0341281 0.0335847 -2.24687e-11)
(0.032302 0.0330743 -2.22034e-11)
(0.0304948 0.0325993 -2.21896e-11)
(0.0287052 0.0321579 -2.19281e-11)
(0.0269323 0.0317487 -2.18947e-11)
(0.025175 0.0313703 -2.16388e-11)
(0.0234322 0.0310215 -2.1591e-11)
(0.021703 0.0307013 -2.13429e-11)
(0.0199862 0.0304085 -2.12859e-11)
(0.0182809 0.0301422 -2.10497e-11)
(0.0165861 0.0299017 -2.09904e-11)
(0.0149007 0.0296861 -2.0774e-11)
(0.0132239 0.0294949 -2.07215e-11)
(0.0115545 0.0293275 -2.05426e-11)
(0.00989176 0.0291833 -2.05062e-11)
(0.00823461 0.029062 -2.03936e-11)
(0.00658211 0.0289631 -2.03894e-11)
(0.00493333 0.0288865 -2.02576e-11)
(0.00328736 0.0288318 -2.03062e-11)
(0.0016434 0.028799 -1.99921e-11)
(1.50219e-08 0.028788 -1.96213e-11)
(-0.00164337 0.028799 -2.17198e-11)
(-0.00328733 0.0288318 -5.13045e-12)
(-0.0049333 0.0288865 -5.4221e-11)
(-0.00658208 0.0289631 -8.03448e-13)
(0.0359447 0.211472 -4.57014e-11)
(0.0427198 0.208745 -1.38921e-10)
(0.049265 0.20555 -4.19778e-11)
(0.0555396 0.201905 -4.21672e-11)
(0.061502 0.19783 -2.49601e-11)
(0.0671112 0.193354 -3.12118e-11)
(0.0723272 0.188508 -1.97502e-11)
(0.0771128 0.183333 -2.70305e-11)
(0.0814347 0.177876 -1.77299e-11)
(0.0852663 0.172188 -2.38495e-11)
(0.0885893 0.166331 -1.7744e-11)
(0.0913969 0.160366 -2.28974e-11)
(0.0936942 0.154356 -2.06582e-11)
(0.0954972 0.148358 -2.48478e-11)
(0.0968304 0.142425 -2.54145e-11)
(0.0977246 0.136599 -2.83169e-11)
(0.0982139 0.130918 -3.00371e-11)
(0.098335 0.12541 -3.14997e-11)
(0.0981246 0.120096 -3.31384e-11)
(0.097619 0.114992 -3.33409e-11)
(0.0968532 0.110108 -3.43591e-11)
(0.0958598 0.105448 -3.36764e-11)
(0.0946694 0.101016 -3.40259e-11)
(0.0933098 0.0968092 -3.28318e-11)
(0.0918065 0.092824 -3.26658e-11)
(0.0901822 0.0890549 -3.12444e-11)
(0.0884571 0.0854949 -3.07741e-11)
(0.0866493 0.0821361 -2.93181e-11)
(0.0847744 0.0789698 -2.87713e-11)
(0.0828463 0.0759871 -2.76049e-11)
(0.080877 0.0731788 -2.66668e-11)
(0.0788769 0.0705358 -2.51678e-11)
(0.0768548 0.0680491 -2.43824e-11)
(0.0748183 0.0657099 -2.31279e-11)
(0.072774 0.0635097 -2.24309e-11)
(0.0707272 0.0614404 -2.13255e-11)
(0.0686826 0.0594943 -2.06772e-11)
(0.066644 0.0576639 -1.97126e-11)
(0.0646145 0.0559423 -1.91215e-11)
(0.0625967 0.0543229 -1.82949e-11)
(0.0605926 0.0527996 -1.77632e-11)
(0.0586038 0.0513667 -1.70688e-11)
(0.0566317 0.0500187 -1.65971e-11)
(0.054677 0.0487506 -1.60229e-11)
(0.0527406 0.0475578 -1.56052e-11)
(0.0508227 0.0464357 -1.51407e-11)
(0.0489236 0.0453805 -1.47709e-11)
(0.0470434 0.0443882 -1.44015e-11)
(0.045182 0.0434555 -1.40729e-11)
(0.0433391 0.0425791 -1.37839e-11)
(0.0415144 0.0417558 -1.349e-11)
(0.0397076 0.0409831 -1.32672e-11)
(0.0379181 0.0402582 -1.30021e-11)
(0.0361455 0.0395788 -1.28325e-11)
(0.0343891 0.0389427 -1.25905e-11)
(0.0326483 0.0383478 -1.24626e-11)
(0.0309224 0.0377922 -1.22391e-11)
(0.0292109 0.0372743 -1.21428e-11)
(0.0275129 0.0367924 -1.19341e-11)
(0.0258277 0.0363451 -1.18616e-11)
(0.0241547 0.035931 -1.16649e-11)
(0.0224931 0.0355489 -1.16099e-11)
(0.020842 0.0351976 -1.14241e-11)
(0.0192009 0.0348761 -1.1383e-11)
(0.0175688 0.0345836 -1.12086e-11)
(0.0159451 0.0343191 -1.118e-11)
(0.0143291 0.034082 -1.10176e-11)
(0.0127198 0.0338715 -1.10015e-11)
(0.0111166 0.033687 -1.08465e-11)
(0.00951866 0.0335282 -1.08391e-11)
(0.0079253 0.0333944 -1.06653e-11)
(0.00633571 0.0332854 -1.06521e-11)
(0.00474914 0.0332009 -1.0376e-11)
(0.00316485 0.0331406 -1.02738e-11)
(0.00158221 0.0331044 -9.89898e-12)
(1.01467e-08 0.0330924 -9.61197e-12)
(-0.00158219 0.0331044 -9.50457e-12)
(-0.00316483 0.0331406 -5.9585e-12)
(-0.00474912 0.0332009 -1.55197e-11)
(-0.00633569 0.0332854 -1.33808e-11)
(0.029999 0.194839 -3.44446e-10)
(0.0356519 0.192621 -2.69827e-10)
(0.0411158 0.19003 -1.61039e-10)
(0.0463596 0.187082 -1.45874e-10)
(0.0513529 0.183796 -1.25861e-10)
(0.0560668 0.180196 -1.19972e-10)
(0.0604741 0.176308 -1.05191e-10)
(0.06455 0.172163 -1.00642e-10)
(0.0682737 0.167795 -8.80047e-11)
(0.0716284 0.163242 -8.31325e-11)
(0.0746031 0.158545 -7.29877e-11)
(0.0771925 0.153744 -6.83078e-11)
(0.0793982 0.14888 -6.11891e-11)
(0.0812275 0.143994 -5.70119e-11)
(0.082693 0.13912 -5.25359e-11)
(0.0838115 0.134293 -4.88457e-11)
(0.084603 0.129539 -4.62146e-11)
(0.0850895 0.124884 -4.29352e-11)
(0.0852945 0.120346 -4.14048e-11)
(0.0852417 0.115942 -3.85008e-11)
(0.084955 0.111683 -3.75536e-11)
(0.0844576 0.107579 -3.50239e-11)
(0.0837717 0.103635 -3.43596e-11)
(0.0829184 0.0998548 -3.22002e-11)
(0.0819175 0.096239 -3.16712e-11)
(0.0807871 0.0927872 -2.98527e-11)
(0.0795442 0.0894974 -2.93921e-11)
(0.078204 0.0863666 -2.78734e-11)
(0.0767803 0.0833906 -2.74534e-11)
(0.0752857 0.0805648 -2.61937e-11)
(0.0737313 0.0778839 -2.57789e-11)
(0.0721271 0.0753424 -2.46931e-11)
(0.0704818 0.0729346 -2.43006e-11)
(0.0688034 0.0706547 -2.33914e-11)
(0.0670985 0.0684968 -2.30261e-11)
(0.0653733 0.0664552 -2.22599e-11)
(0.0636329 0.0645242 -2.19164e-11)
(0.0618818 0.0626983 -2.12717e-11)
(0.060124 0.0609723 -2.09493e-11)
(0.0583628 0.059341 -2.04107e-11)
(0.0566009 0.0577995 -2.011e-11)
(0.054841 0.0563433 -1.96634e-11)
(0.0530849 0.0549678 -1.93828e-11)
(0.0513344 0.0536689 -1.90153e-11)
(0.0495909 0.0524427 -1.87536e-11)
(0.0478555 0.0512853 -1.84534e-11)
(0.046129 0.0501934 -1.82085e-11)
(0.0444123 0.0491636 -1.79642e-11)
(0.0427058 0.0481927 -1.77336e-11)
(0.0410099 0.0472781 -1.75343e-11)
(0.0393248 0.0464168 -1.73154e-11)
(0.0376507 0.0456064 -1.71515e-11)
(0.0359875 0.0448445 -1.69417e-11)
(0.0343351 0.044129 -1.68047e-11)
(0.0326935 0.0434578 -1.66016e-11)
(0.0310624 0.0428289 -1.64838e-11)
(0.0294416 0.0422406 -1.62855e-11)
(0.0278307 0.0416913 -1.61809e-11)
(0.0262293 0.0411795 -1.59855e-11)
(0.0246371 0.0407037 -1.58894e-11)
(0.0230536 0.0402627 -1.5696e-11)
(0.0214783 0.0398552 -1.56051e-11)
(0.0199109 0.0394803 -1.54138e-11)
(0.0183507 0.0391369 -1.53267e-11)
(0.0167974 0.038824 -1.51396e-11)
(0.0152502 0.038541 -1.50576e-11)
(0.0137088 0.038287 -1.48805e-11)
(0.0121725 0.0380615 -1.48082e-11)
(0.0106408 0.0378637 -1.46566e-11)
(0.0091132 0.0376933 -1.45998e-11)
(0.00758903 0.0375498 -1.45e-11)
(0.00606775 0.0374328 -1.44688e-11)
(0.00454878 0.037342 -1.43631e-11)
(0.00303157 0.0372773 -1.43752e-11)
(0.00151565 0.0372385 -1.41169e-11)
(1.28419e-08 0.0372255 -1.38338e-11)
(-0.00151562 0.0372385 -1.55595e-11)
(-0.00303154 0.0372773 -2.22431e-12)
(-0.00454876 0.037342 -4.19898e-11)
(-0.00606773 0.0374328 3.18195e-12)
(0.0251646 0.180909 -7.70068e-11)
(0.0299148 0.179106 -1.29782e-10)
(0.0345126 0.177002 -6.40947e-11)
(0.0389343 0.174611 -7.01119e-11)
(0.0431572 0.171949 -5.94789e-11)
(0.0471601 0.169035 -6.08671e-11)
(0.0509234 0.16589 -5.18942e-11)
(0.0544299 0.162538 -5.30241e-11)
(0.0576647 0.159003 -4.55018e-11)
(0.0606164 0.155314 -4.64659e-11)
(0.0632769 0.151498 -4.05198e-11)
(0.0656418 0.147584 -4.13316e-11)
(0.0677107 0.143602 -3.70723e-11)
(0.0694867 0.139578 -3.75969e-11)
(0.0709764 0.13554 -3.47614e-11)
(0.0721891 0.131512 -3.48282e-11)
(0.0731366 0.127516 -3.30097e-11)
(0.0738324 0.123572 -3.2544e-11)
(0.0742915 0.119696 -3.13593e-11)
(0.0745295 0.115902 -3.03965e-11)
(0.0745626 0.112203 -2.95597e-11)
(0.0744071 0.108608 -2.82078e-11)
(0.0740789 0.105124 -2.75373e-11)
(0.0735937 0.101757 -2.59276e-11)
(0.0729664 0.0985098 -2.5325e-11)
(0.0722112 0.0953856 -2.35862e-11)
(0.0713416 0.0923849 -2.30082e-11)
(0.07037 0.0895077 -2.12476e-11)
(0.0693081 0.0867528 -2.06839e-11)
(0.0681666 0.0841184 -1.89809e-11)
(0.0669553 0.0816022 -1.84345e-11)
(0.0656831 0.0792013 -1.68452e-11)
(0.0643583 0.0769124 -1.63257e-11)
(0.062988 0.074732 -1.48884e-11)
(0.061579 0.0726565 -1.44066e-11)
(0.0601372 0.070682 -1.314e-11)
(0.0586679 0.0688046 -1.27023e-11)
(0.0571757 0.0670207 -1.16121e-11)
(0.0556649 0.0653262 -1.12217e-11)
(0.0541391 0.0637174 -1.03038e-11)
(0.0526017 0.0621907 -9.96086e-12)
(0.0510554 0.0607425 -9.20458e-12)
(0.0495028 0.0593693 -8.90659e-12)
(0.047946 0.0580677 -8.29676e-12)
(0.0463869 0.0568346 -8.03976e-12)
(0.0448271 0.055667 -7.55896e-12)
(0.043268 0.0545619 -7.33796e-12)
(0.0417108 0.0535165 -6.96786e-12)
(0.0401563 0.0525283 -6.77716e-12)
(0.0386054 0.0515948 -6.49953e-12)
(0.0370589 0.0507136 -6.3333e-12)
(0.0355171 0.0498825 -6.13106e-12)
(0.0339805 0.0490994 -5.98373e-12)
(0.0324494 0.0483624 -5.84126e-12)
(0.030924 0.0476696 -5.70765e-12)
(0.0294045 0.0470194 -5.61124e-12)
(0.0278908 0.0464101 -5.4868e-12)
(0.026383 0.0458403 -5.42466e-12)
(0.024881 0.0453085 -5.30553e-12)
(0.0233847 0.0448135 -5.2678e-12)
(0.0218939 0.0443541 -5.15099e-12)
(0.0204085 0.0439292 -5.1298e-12)
(0.0189281 0.0435377 -5.01326e-12)
(0.0174526 0.0431788 -5.00284e-12)
(0.0159816 0.0428515 -4.88555e-12)
(0.0145148 0.0425552 -4.88239e-12)
(0.0130519 0.042289 -4.76256e-12)
(0.0115926 0.0420525 -4.7641e-12)
(0.0101364 0.0418451 -4.63333e-12)
(0.00868308 0.0416662 -4.6342e-12)
(0.00723217 0.0415155 -4.46335e-12)
(0.00578329 0.0413926 -4.44714e-12)
(0.00433603 0.0412973 -4.18016e-12)
(0.00289001 0.0412293 -4.07774e-12)
(0.00144494 0.0411885 -3.74593e-12)
(6.92955e-09 0.0411749 -3.57639e-12)
(-0.00144492 0.0411885 -3.00112e-12)
(-0.00289 0.0412293 -3.32821e-12)
(-0.00433601 0.0412973 -1.6822e-12)
(-0.00578327 0.0413926 -1.03168e-11)
(0.0212274 0.169167 -2.78957e-10)
(0.0252456 0.167696 -1.82968e-10)
(0.0291421 0.16598 -1.27713e-10)
(0.0328986 0.164032 -1.16424e-10)
(0.0364977 0.161862 -1.07299e-10)
(0.0399233 0.159488 -1.02761e-10)
(0.0431608 0.156923 -9.52197e-11)
(0.0461973 0.154188 -9.18336e-11)
(0.0490219 0.151299 -8.52454e-11)
(0.0516257 0.148279 -8.19203e-11)
(0.0540024 0.145146 -7.62894e-11)
(0.056148 0.141923 -7.29065e-11)
(0.058061 0.138631 -6.832e-11)
(0.0597424 0.135289 -6.48428e-11)
(0.0611954 0.131918 -6.12051e-11)
(0.062425 0.128536 -5.76469e-11)
(0.0634384 0.125161 -5.48074e-11)
(0.0642437 0.121808 -5.12358e-11)
(0.0648506 0.118491 -4.90349e-11)
(0.0652694 0.115222 -4.55396e-11)
(0.0655111 0.112013 -4.3829e-11)
(0.065587 0.108872 -4.04955e-11)
(0.0655085 0.105807 -3.91492e-11)
(0.065287 0.102824 -3.60444e-11)
(0.0649338 0.0999277 -3.49642e-11)
(0.0644595 0.0971218 -3.21325e-11)
(0.0638749 0.0944088 -3.1247e-11)
(0.0631897 0.0917905 -2.87116e-11)
(0.0624135 0.0892674 -2.79713e-11)
(0.0615551 0.0868398 -2.57376e-11)
(0.0606229 0.0845071 -2.51088e-11)
(0.0596246 0.0822683 -2.31691e-11)
(0.0585673 0.080122 -2.26298e-11)
(0.0574577 0.0780663 -2.09684e-11)
(0.0563017 0.0760992 -2.05031e-11)
(0.055105 0.0742185 -1.90975e-11)
(0.0538725 0.0724217 -1.86955e-11)
(0.0526088 0.0707063 -1.75204e-11)
(0.0513182 0.0690697 -1.71721e-11)
(0.0500042 0.0675094 -1.62006e-11)
(0.0486703 0.0660226 -1.58986e-11)
(0.0473195 0.0646068 -1.51035e-11)
(0.0459546 0.0632594 -1.48407e-11)
(0.0445777 0.0619777 -1.41962e-11)
(0.0431913 0.0607595 -1.39662e-11)
(0.041797 0.0596022 -1.34479e-11)