/*--------------------------------*- C++ -*----------------------------------*\
| =========                 |                                                 |
| \\      /  F ield         | OpenFOAM: The Open Source CFD Toolbox           |
|  \\    /   O peration     | Version:  2306                                  |
|   \\  /    A nd           | Website:  www.openfoam.com                      |
|    \\/     M anipulation  |                                                 |
\*---------------------------------------------------------------------------*/
FoamFile
{
    version     2.0;
    format      ascii;
    arch        "LSB;label=32;scalar=64";
    class       volScalarField;
    location    "75";
    object      p;
}
// * * * * * * * * * * * * * * * * * * * * * * * * * * * * * * * * * * * * * //

dimensions      [1 -1 -2 0 0 0 0];

internalField   nonuniform List<scalar> 
14400
(
-0.00643873
-0.00646377
-0.00649347
-0.0065279
-0.00656718
-0.00661142
-0.00666077
-0.00671539
-0.00677546
-0.00684119
-0.00691281
-0.00699057
-0.00707476
-0.00716569
-0.00726371
-0.0073692
-0.00748258
-0.00760432
-0.00773493
-0.00787498
-0.00802509
-0.00818594
-0.00835832
-0.00854306
-0.00874112
-0.00895353
-0.00918147
-0.00942625
-0.00968934
-0.00997239
-0.0102773
-0.010606
-0.0109612
-0.0113453
-0.0117616
-0.0122137
-0.0127057
-0.0132423
-0.0138292
-0.0144729
-0.0151808
-0.0159621
-0.0168272
-0.0177884
-0.0188602
-0.0200594
-0.0214054
-0.0229203
-0.0246283
-0.0265556
-0.0287288
-0.0311709
-0.0339036
-0.0369874
-0.0405301
-0.0440362
-0.0446996
-0.0382101
-0.0244111
-0.00976382
-0.00739567
-0.00578349
-0.00551749
-0.00531992
-0.00491826
-0.00448646
-0.00408858
-0.00373395
-0.00342422
-0.00315972
-0.00293965
-0.00276258
-0.00262704
-0.00253169
-0.00247542
-0.00245694
-0.00247545
-0.00253175
-0.00262712
-0.00276269
-0.00603488
-0.00605799
-0.00608537
-0.00611711
-0.0061533
-0.00619405
-0.00623951
-0.00628981
-0.00634513
-0.00640565
-0.00647158
-0.00654316
-0.00662064
-0.00670431
-0.00679448
-0.0068915
-0.00699575
-0.00710766
-0.00722768
-0.00735633
-0.00749417
-0.00764183
-0.00779999
-0.00796941
-0.00815094
-0.00834551
-0.00855416
-0.00877804
-0.00901846
-0.00927684
-0.0095548
-0.00985415
-0.0101769
-0.0105254
-0.0109022
-0.0113102
-0.0117526
-0.0122334
-0.0127565
-0.0133269
-0.0139499
-0.0146315
-0.0153785
-0.0161983
-0.017099
-0.0180892
-0.0191772
-0.0203712
-0.0216771
-0.023097
-0.0246255
-0.0262537
-0.0279852
-0.0297374
-0.0308462
-0.0297518
-0.0257872
-0.0208957
-0.0170934
-0.0148196
-0.0131137
-0.0102092
-0.00832501
-0.00701808
-0.00600471
-0.00520859
-0.00457894
-0.00407502
-0.00366886
-0.00334177
-0.00308092
-0.00287739
-0.002725
-0.00261965
-0.00255878
-0.00253922
-0.00255881
-0.00261971
-0.00272508
-0.00287749
-0.00567035
-0.00569143
-0.00571636
-0.00574523
-0.00577811
-0.00581512
-0.00585636
-0.00590196
-0.00595208
-0.00600688
-0.00606653
-0.00613125
-0.00620125
-0.00627677
-0.0063581
-0.00644552
-0.00653935
-0.00663997
-0.00674775
-0.00686314
-0.0069866
-0.00711866
-0.00725988
-0.0074109
-0.00757241
-0.00774518
-0.00793005
-0.00812795
-0.00833991
-0.00856709
-0.00881074
-0.00907228
-0.00935327
-0.00965545
-0.00998077
-0.0103314
-0.0107097
-0.0111184
-0.0115605
-0.0120393
-0.0125584
-0.0131218
-0.013734
-0.0143994
-0.015123
-0.0159093
-0.0167627
-0.0176861
-0.0186805
-0.0197428
-0.020864
-0.0220316
-0.0232263
-0.0243547
-0.0250942
-0.0249089
-0.0234115
-0.0206353
-0.0170404
-0.0135865
-0.010955
-0.00883375
-0.00738498
-0.00639645
-0.00566064
-0.00508031
-0.00460869
-0.00421903
-0.00389521
-0.00362723
-0.00340862
-0.00323512
-0.00310387
-0.00301337
-0.00296315
-0.0029481
-0.00296318
-0.00301342
-0.00310394
-0.00323521
-0.00527754
-0.00529613
-0.00531808
-0.00534344
-0.00537229
-0.00540471
-0.0054408
-0.00548066
-0.00552441
-0.00557218
-0.00562412
-0.00568038
-0.00574114
-0.00580659
-0.00587695
-0.00595243
-0.00603329
-0.00611981
-0.00621227
-0.00631101
-0.00641637
-0.00652874
-0.00664853
-0.0067762
-0.00691225
-0.0070572
-0.00721164
-0.00737621
-0.00755159
-0.00773854
-0.00793786
-0.00815044
-0.00837724
-0.00861928
-0.00887768
-0.00915365
-0.00944847
-0.00976351
-0.0101002
-0.0104602
-0.010845
-0.0112563
-0.0116957
-0.0121649
-0.0126653
-0.0131981
-0.0137641
-0.0143632
-0.0149941
-0.0156539
-0.0163375
-0.0170377
-0.0177463
-0.0184479
-0.0190884
-0.0195105
-0.0194486
-0.0186929
-0.0173028
-0.0156281
-0.0140601
-0.0126543
-0.0113957
-0.010276
-0.00931233
-0.00850322
-0.00782963
-0.00727049
-0.00680844
-0.00643001
-0.00612507
-0.00588616
-0.00570821
-0.00558898
-0.00552877
-0.0055135
-0.00552879
-0.00558902
-0.00570827
-0.00588625
-0.00489989
-0.0049159
-0.00493474
-0.00495647
-0.00498114
-0.00500882
-0.00503958
-0.00507349
-0.00511064
-0.00515114
-0.00519507
-0.00524257
-0.00529374
-0.00534874
-0.0054077
-0.00547079
-0.00553818
-0.00561004
-0.00568659
-0.00576803
-0.0058546
-0.00594653
-0.0060441
-0.00614757
-0.00625725
-0.00637344
-0.00649649
-0.00662674
-0.00676455
-0.00691033
-0.00706445
-0.00722735
-0.00739943
-0.00758113
-0.00777287
-0.00797506
-0.00818811
-0.00841235
-0.00864811
-0.00889561
-0.00915497
-0.00942618
-0.00970903
-0.0100031
-0.0103076
-0.0106214
-0.0109429
-0.0112697
-0.011599
-0.0119267
-0.0122481
-0.0125576
-0.0128493
-0.0131174
-0.0133526
-0.0135379
-0.0136501
-0.0136642
-0.0135531
-0.0133065
-0.0129593
-0.0125487
-0.0121028
-0.0116415
-0.0111893
-0.0107656
-0.0103803
-0.0100373
-0.00973778
-0.00948191
-0.0092697
-0.00910127
-0.0089772
-0.00890026
-0.00887452
-0.00887483
-0.00887455
-0.00890031
-0.00897728
-0.00910138
-0.00452791
-0.00454124
-0.0045569
-0.00457491
-0.00459531
-0.00461815
-0.00464347
-0.00467132
-0.00470176
-0.00473485
-0.00477066
-0.00480926
-0.00485072
-0.00489513
-0.00494258
-0.00499315
-0.00504695
-0.00510408
-0.00516464
-0.00522876
-0.00529654
-0.00536811
-0.00544358
-0.00552309
-0.00560676
-0.00569472
-0.00578707
-0.00588395
-0.00598545
-0.00609166
-0.00620268
-0.00631855
-0.00643929
-0.0065649
-0.00669532
-0.00683043
-0.00697005
-0.0071139
-0.00726162
-0.00741271
-0.00756654
-0.00772229
-0.00787897
-0.00803537
-0.00819001
-0.00834116
-0.00848677
-0.0086245
-0.00875168
-0.00886533
-0.00896223
-0.00903901
-0.00909224
-0.0091185
-0.00911466
-0.00907992
-0.00901977
-0.00894647
-0.00887138
-0.00879788
-0.00872441
-0.00864792
-0.00856701
-0.00848106
-0.00839176
-0.0083022
-0.0082154
-0.00813403
-0.00806046
-0.00799689
-0.00794538
-0.00790781
-0.00788613
-0.00788413
-0.0079058
-0.00792283
-0.00790584
-0.00788422
-0.00788626
-0.00790798
-0.00417163
-0.00418237
-0.00419494
-0.00420935
-0.00422563
-0.00424379
-0.00426387
-0.00428589
-0.00430988
-0.00433587
-0.00436389
-0.00439398
-0.00442617
-0.0044605
-0.004497
-0.00453571
-0.00457666
-0.00461989
-0.00466544
-0.00471332
-0.00476357
-0.00481621
-0.00487125
-0.0049287
-0.00498854
-0.00505077
-0.00511534
-0.00518221
-0.0052513
-0.0053225
-0.00539568
-0.00547066
-0.00554722
-0.0056251
-0.00570395
-0.00578338
-0.00586291
-0.00594197
-0.00601988
-0.00609587
-0.00616904
-0.00623836
-0.00630265
-0.0063606
-0.00641079
-0.00645163
-0.00648146
-0.00649855
-0.00650119
-0.0064877
-0.00645665
-0.00640688
-0.00633772
-0.00624911
-0.00614165
-0.00601696
-0.00587821
-0.00573064
-0.0055811
-0.00543665
-0.00530292
-0.00518303
-0.00507802
-0.00498744
-0.00491028
-0.00484538
-0.00479164
-0.00474809
-0.00471405
-0.00468916
-0.0046733
-0.00466653
-0.0046692
-0.00468331
-0.00471095
-0.00472823
-0.00471101
-0.00468344
-0.00466939
-0.00466679
-0.00383047
-0.00383874
-0.00384838
-0.00385938
-0.00387176
-0.00388552
-0.00390067
-0.00391721
-0.00393515
-0.0039545
-0.00397526
-0.00399743
-0.00402101
-0.004046
-0.0040724
-0.00410019
-0.00412937
-0.00415991
-0.0041918
-0.00422499
-0.00425945
-0.00429513
-0.00433197
-0.00436988
-0.00440878
-0.00444855
-0.00448907
-0.00453016
-0.00457166
-0.00461335
-0.00465497
-0.00469623
-0.0047368
-0.0047763
-0.00481428
-0.00485025
-0.00488364
-0.00491383
-0.0049401
-0.00496169
-0.00497773
-0.00498729
-0.00498939
-0.00498297
-0.00496693
-0.00494018
-0.00490162
-0.00485024
-0.00478514
-0.0047056
-0.00461122
-0.00450194
-0.00437818
-0.00424095
-0.0040919
-0.00393341
-0.00376856
-0.00360106
-0.00343486
-0.0032738
-0.00312123
-0.00297969
-0.00285088
-0.00273573
-0.00263455
-0.00254721
-0.00247327
-0.00241209
-0.00236302
-0.00232545
-0.00229884
-0.00228273
-0.00227688
-0.00228227
-0.00229991
-0.00231178
-0.00229999
-0.00228244
-0.00227714
-0.00228306
-0.00350724
-0.00351324
-0.00352019
-0.00352807
-0.00353688
-0.00354661
-0.00355726
-0.00356882
-0.00358127
-0.0035946
-0.0036088
-0.00362383
-0.00363968
-0.00365631
-0.0036737
-0.0036918
-0.00371056
-0.00372992
-0.00374984
-0.00377022
-0.00379099
-0.00381205
-0.00383329
-0.00385458
-0.00387579
-0.00389674
-0.00391726
-0.00393713
-0.00395613
-0.00397399
-0.00399041
-0.00400507
-0.0040176
-0.0040276
-0.00403464
-0.00403821
-0.00403779
-0.00403281
-0.00402265
-0.00400667
-0.00398416
-0.00395441
-0.0039167
-0.00387029
-0.00381447
-0.00374859
-0.00367204
-0.00358436
-0.00348523
-0.00337454
-0.00325243
-0.00311936
-0.00297613
-0.00282395
-0.00266442
-0.00249957
-0.00233177
-0.00216368
-0.00199806
-0.00183756
-0.00168457
-0.00154106
-0.00140852
-0.00128795
-0.00117993
-0.00108469
-0.00100217
-0.000932099
-0.000874119
-0.00082781
-0.000792751
-0.000768501
-0.000754742
-0.000751989
-0.000760752
-0.000767979
-0.00076085
-0.000752186
-0.000755032
-0.000768876
-0.00320261
-0.00320657
-0.0032111
-0.00321618
-0.0032218
-0.00322794
-0.00323459
-0.00324172
-0.00324931
-0.00325733
-0.00326574
-0.00327452
-0.00328361
-0.00329297
-0.00330254
-0.00331226
-0.00332207
-0.00333188
-0.00334161
-0.00335116
-0.00336043
-0.00336929
-0.00337762
-0.00338525
-0.00339203
-0.00339778
-0.00340229
-0.00340535
-0.0034067
-0.00340609
-0.00340323
-0.00339781
-0.00338947
-0.00337786
-0.00336259
-0.00334323
-0.00331934
-0.00329046
-0.00325612
-0.00321581
-0.00316904
-0.00311531
-0.00305415
-0.00298511
-0.00290778
-0.00282184
-0.00272704
-0.00262324
-0.00251048
-0.00238892
-0.00225897
-0.00212123
-0.00197655
-0.00182605
-0.00167107
-0.00151321
-0.00135422
-0.001196
-0.00104048
-0.000889536
-0.000744892
-0.000608049
-0.000480243
-0.000362424
-0.000255265
-0.000159187
-7.43935e-05
-9.20756e-07
6.13215e-05
0.000112505
0.000152856
0.000182657
0.000202139
0.00021098
0.00020889
0.000205137
0.000208789
0.000210779
0.000201843
0.000182274
-0.00291743
-0.0029196
-0.00292201
-0.00292465
-0.00292749
-0.00293051
-0.00293368
-0.00293699
-0.00294038
-0.00294383
-0.0029473
-0.00295073
-0.00295407
-0.00295726
-0.00296025
-0.00296294
-0.00296528
-0.00296716
-0.00296849
-0.00296917
-0.00296907
-0.00296807
-0.00296603
-0.0029628
-0.00295821
-0.00295209
-0.00294423
-0.00293442
-0.00292245
-0.00290807
-0.00289102
-0.00287103
-0.0028478
-0.00282103
-0.0027904
-0.00275558
-0.00271622
-0.00267199
-0.00262253
-0.0025675
-0.00250658
-0.00243945
-0.00236583
-0.00228549
-0.00219825
-0.00210398
-0.00200266
-0.00189436
-0.00177927
-0.0016577
-0.00153011
-0.00139712
-0.00125951
-0.0011182
-0.000974295
-0.000828991
-0.000683606
-0.000539515
-0.000398107
-0.000260737
-0.000128675
-3.06609e-06
0.000115098
0.000224997
0.000325983
0.000417576
0.000499447
0.000571397
0.000633335
0.00068525
0.0007272
0.000759308
0.00078169
0.000794092
0.00079631
0.000794887
0.000796215
0.000793901
0.000781408
0.000758945
-0.00265191
-0.00265255
-0.00265315
-0.0026537
-0.00265417
-0.00265455
-0.00265478
-0.00265486
-0.00265473
-0.00265435
-0.00265368
-0.00265267
-0.00265125
-0.00264937
-0.00264695
-0.00264392
-0.0026402
-0.00263569
-0.0026303
-0.00262392
-0.00261644
-0.00260774
-0.00259767
-0.0025861
-0.00257287
-0.00255781
-0.00254076
-0.00252153
-0.00249992
-0.00247573
-0.00244873
-0.0024187
-0.00238542
-0.00234863
-0.0023081
-0.00226357
-0.00221481
-0.00216157
-0.00210361
-0.00204073
-0.00197272
-0.00189941
-0.00182067
-0.00173639
-0.00164655
-0.00155115
-0.00145028
-0.00134411
-0.00123291
-0.00111701
-0.000996888
-0.000873088
-0.000746279
-0.000617223
-0.000486775
-0.000355864
-0.000225478
-9.66376e-05
2.96322e-05
0.000152327
0.000270492
0.000383246
0.000489798
0.000589462
0.000681661
0.000765926
0.000841893
0.000909293
0.00096794
0.00101772
0.00105857
0.00109052
0.00111358
0.00112752
0.00113219
0.00113221
0.00113211
0.00112735
0.00111332
0.00109019
-0.00240597
-0.00240533
-0.00240443
-0.00240324
-0.00240176
-0.00239994
-0.00239776
-0.00239518
-0.00239216
-0.00238866
-0.00238464
-0.00238003
-0.00237479
-0.00236885
-0.00236213
-0.00235458
-0.00234609
-0.0023366
-0.00232601
-0.00231422
-0.00230112
-0.00228659
-0.00227053
-0.0022528
-0.00223327
-0.00221179
-0.00218821
-0.00216239
-0.00213415
-0.00210334
-0.00206977
-0.00203327
-0.00199367
-0.00195079
-0.00190445
-0.00185447
-0.00180069
-0.00174296
-0.00168113
-0.00161507
-0.00154469
-0.00146991
-0.00139069
-0.00130702
-0.00121895
-0.00112657
-0.00103003
-0.000929526
-0.000825346
-0.000717829
-0.000607391
-0.000494516
-0.000379758
-0.000263735
-0.00014712
-3.06347e-05
8.49685e-05
0.000198917
0.000310435
0.000418763
0.000523169
0.000622967
0.000717527
0.000806284
0.000888741
0.000964477
0.00103314
0.00109444
0.00114817
0.00119415
0.00123228
0.0012625
0.00128477
0.0012989
0.00130475
0.00130559
0.00130467
0.00129875
0.00128455
0.00126221
-0.00217922
-0.00217754
-0.00217541
-0.00217282
-0.00216975
-0.00216618
-0.00216206
-0.00215736
-0.00215205
-0.00214609
-0.00213942
-0.00213201
-0.00212378
-0.0021147
-0.00210468
-0.00209366
-0.00208158
-0.00206834
-0.00205388
-0.00203809
-0.00202089
-0.00200217
-0.00198184
-0.00195979
-0.0019359
-0.00191005
-0.00188212
-0.00185199
-0.00181953
-0.00178462
-0.00174711
-0.00170688
-0.0016638
-0.00161774
-0.00156859
-0.00151623
-0.00146056
-0.00140148
-0.00133891
-0.00127281
-0.00120314
-0.00112987
-0.00105304
-0.000972694
-0.000888917
-0.000801839
-0.000711632
-0.000618511
-0.000522744
-0.000424644
-0.000324575
-0.00022295
-0.000120225
-1.69015e-05
8.64864e-05
0.000189374
0.000291177
0.000391299
0.000489142
0.00058412
0.000675664
0.000763233
0.000846322
0.000924469
0.000997257
0.00106432
0.00112534
0.00118004
0.00122822
0.00126968
0.00130429
0.00133197
0.00135266
0.00136617
0.00137239
0.00137366
0.00137232
0.00136605
0.00135248
0.00133174
-0.00197101
-0.0019685
-0.00196542
-0.00196173
-0.00195743
-0.00195248
-0.00194686
-0.00194053
-0.00193347
-0.00192562
-0.00191695
-0.00190741
-0.00189696
-0.00188553
-0.00187308
-0.00185954
-0.00184484
-0.00182893
-0.00181172
-0.00179314
-0.00177311
-0.00175155
-0.00172838
-0.0017035
-0.00167682
-0.00164825
-0.00161769
-0.00158505
-0.00155023
-0.00151314
-0.00147367
-0.00143174
-0.00138726
-0.00134015
-0.00129032
-0.00123772
-0.00118228
-0.00112396
-0.00106274
-0.000998587
-0.000931523
-0.000861575
-0.000788795
-0.000713266
-0.000635096
-0.000554429
-0.000471438
-0.000386331
-0.000299354
-0.000210784
-0.000120936
-3.0156e-05
6.11779e-05
0.000152661
0.000243863
0.000334338
0.000423624
0.000511256
0.000596764
0.000679688
0.000759581
0.000836011
0.000908573
0.00097689
0.00104062
0.00109944
0.00115308
0.0012013
0.0012439
0.0012807
0.00131157
0.00133641
0.00135515
0.00136763
0.00137374
0.00137519
0.00137369
0.00136753
0.001355
0.00133623
-0.00178052
-0.00177739
-0.00177357
-0.00176906
-0.00176383
-0.00175786
-0.00175112
-0.00174359
-0.00173523
-0.00172601
-0.00171589
-0.00170484
-0.00169279
-0.00167972
-0.00166557
-0.00165029
-0.00163383
-0.00161612
-0.0015971
-0.00157672
-0.00155491
-0.0015316
-0.00150673
-0.00148022
-0.00145199
-0.00142199
-0.00139014
-0.00135636
-0.00132059
-0.00128275
-0.00124279
-0.00120064
-0.00115625
-0.00110956
-0.00106054
-0.00100914
-0.000955354
-0.00089916
-0.000840564
-0.000779582
-0.00071625
-0.000650619
-0.000582765
-0.00051278
-0.000440784
-0.000366918
-0.00029135
-0.000214271
-0.000135899
-5.64792e-05
2.37219e-05
0.000104413
0.000185282
0.000265998
0.000346215
0.000425574
0.000503707
0.000580243
0.000654813
0.000727048
0.000796592
0.000863101
0.000926247
0.000985721
0.00104124
0.00109254
0.00113938
0.00118157
0.00121891
0.00125125
0.00127847
0.00130047
0.00131717
0.00132844
0.0013342
0.00133569
0.00133417
0.00132837
0.00131706
0.00130033
-0.00160679
-0.0016032
-0.00159886
-0.00159375
-0.00158786
-0.00158117
-0.00157365
-0.00156528
-0.00155604
-0.00154588
-0.00153478
-0.00152271
-0.00150962
-0.00149549
-0.00148026
-0.00146389
-0.00144634
-0.00142757
-0.00140751
-0.00138613
-0.00136337
-0.00133918
-0.0013135
-0.00128629
-0.00125748
-0.00122703
-0.00119488
-0.00116098
-0.00112529
-0.00108777
-0.00104835
-0.00100703
-0.000963747
-0.000918494
-0.000871248
-0.000822
-0.000770752
-0.000717512
-0.000662306
-0.000605168
-0.000546149
-0.000485314
-0.000422746
-0.000358544
-0.000292824
-0.000225721
-0.000157391
-8.80056e-05
-1.77581e-05
5.31416e-05
0.000124466
0.00019597
0.000267395
0.00033847
0.000408913
0.000478433
0.000546734
0.000613519
0.000678489
0.000741351
0.000801818
0.000859611
0.000914465
0.000966128
0.00101436
0.00105896
0.00109971
0.00113645
0.00116901
0.00119726
0.00122109
0.00124042
0.00125516
0.00126521
0.0012705
0.00127194
0.00127047
0.00126516
0.00125508
0.00124032
-0.00144878
-0.00144488
-0.00144019
-0.00143469
-0.00142837
-0.00142121
-0.00141319
-0.00140429
-0.00139449
-0.00138376
-0.00137208
-0.00135941
-0.00134573
-0.001331
-0.00131519
-0.00129827
-0.00128019
-0.00126093
-0.00124044
-0.00121868
-0.00119562
-0.00117122
-0.00114543
-0.00111822
-0.00108955
-0.00105938
-0.00102768
-0.000994406
-0.00095954
-0.000923049
-0.000884911
-0.000845108
-0.000803626
-0.000760459
-0.000715607
-0.000669077
-0.000620885
-0.000571058
-0.00051963
-0.000466648
-0.000412171
-0.00035627
-0.000299028
-0.000240543
-0.000180926
-0.000120303
-5.88122e-05
3.39128e-06
6.614e-05
0.000129253
0.000192537
0.000255786
0.000318786
0.000381311
0.000443131
0.000504009
0.000563703
0.000621973
0.000678577
0.000733279
0.000785844
0.000836048
0.000883674
0.000928516
0.000970381
0.00100909
0.00104448
0.0010764
0.00110471
0.00112931
0.00115009
0.00116698
0.00117991
0.0011888
0.00119358
0.00119493
0.00119356
0.00118877
0.00117987
0.00116692
-0.00130539
-0.00130131
-0.00129641
-0.00129069
-0.00128413
-0.00127671
-0.00126843
-0.00125925
-0.00124918
-0.00123817
-0.00122622
-0.0012133
-0.00119938
-0.00118444
-0.00116845
-0.00115139
-0.00113323
-0.00111393
-0.00109348
-0.00107183
-0.00104897
-0.00102486
-0.000999479
-0.000972795
-0.000944785
-0.000915424
-0.00088469
-0.000852564
-0.000819029
-0.000784072
-0.000747683
-0.000709859
-0.0006706
-0.00062991
-0.000587804
-0.000544298
-0.000499421
-0.000453205
-0.000405695
-0.000356942
-0.000307007
-0.000255962
-0.000203888
-0.000150879
-9.70363e-05
-4.24754e-05
1.26794e-05
6.82926e-05
0.000124219
0.000180302
0.000236378
0.000292274
0.000347811
0.000402801
0.000457054
0.000510375
0.000562567
0.000613433
0.000662777
0.000710404
0.000756126
0.000799757
0.000841122
0.000880051
0.000916385
0.000949977
0.000980689
0.0010084
0.00103299
0.00105437
0.00107246
0.00108719
0.00109849
0.00110631
0.00111058
0.00111183
0.00111058
0.0011063
0.00109847
0.00108716
-0.00117554
-0.00117138
-0.00116639
-0.00116058
-0.00115393
-0.00114643
-0.00113807
-0.00112883
-0.0011187
-0.00110766
-0.00109569
-0.00108278
-0.00106891
-0.00105406
-0.00103821
-0.00102133
-0.00100341
-0.00098443
-0.000964364
-0.000943193
-0.000920897
-0.000897456
-0.000872854
-0.000847072
-0.000820094
-0.000791908
-0.000762501
-0.000731865
-0.000699994
-0.000666885
-0.000632538
-0.00059696
-0.00056016
-0.000522152
-0.000482957
-0.000442601
-0.000401116
-0.000358541
-0.000314923
-0.000270315
-0.000224778
-0.000178382
-0.000131205
-8.3331e-05
-3.48555e-05
1.41192e-05
6.34827e-05
0.000113116
0.000162894
0.000212681
0.00026234
0.000311723
0.00036068
0.000409054
0.000456689
0.000503422
0.000549091
0.000593535
0.000636591
0.000678102
0.000717912
0.000755869
0.000791829
0.000825654
0.000857211
0.000886379
0.000913045
0.000937106
0.000958468
0.00097705
0.000992783
0.00100561
0.00101548
0.00102234
0.00102614
0.00102727
0.00102614
0.00102234
0.00101548
0.00100561
-0.00105813
-0.00105397
-0.001049
-0.00104321
-0.00103659
-0.00102914
-0.00102085
-0.00101171
-0.0010017
-0.000990808
-0.000979027
-0.000966342
-0.000952739
-0.000938203
-0.000922719
-0.000906274
-0.000888852
-0.000870439
-0.000851022
-0.000830586
-0.00080912
-0.000786611
-0.000763048
-0.000738423
-0.000712728
-0.000685957
-0.000658107
-0.000629176
-0.000599167
-0.000568084
-0.000535936
-0.000502735
-0.000468497
-0.000433242
-0.000396995
-0.000359787
-0.000321654
-0.000282635
-0.000242779
-0.000202139
-0.000160772
-0.000118746
-7.6131e-05
-3.3007e-05
1.05416e-05
5.44232e-05
9.85404e-05
0.00014279
0.000187061
0.000231242
0.000275211
0.000318845
0.000362018
0.000404598
0.000446454
0.000487452
0.000527458
0.000566336
0.000603955
0.000640183
0.000674892
0.000707959
0.000739263
0.00076869
0.000796132
0.000821489
0.000844666
0.000865577
0.000884146
0.000900305
0.000913994
0.000925166
0.00093378
0.000939788
0.000943153
0.000944176
0.000943159
0.000939799
0.000933797
0.000925191
-0.000952129
-0.000948029
-0.000943141
-0.000937459
-0.000930977
-0.000923687
-0.000915583
-0.000906657
-0.0008969
-0.000886303
-0.000874857
-0.000862552
-0.000849379
-0.000835327
-0.000820387
-0.000804549
-0.000787805
-0.000770144
-0.000751558
-0.00073204
-0.000711583
-0.000690181
-0.00066783
-0.000644526
-0.000620268
-0.000595056
-0.000568893
-0.000541785
-0.000513737
-0.000484761
-0.00045487
-0.00042408
-0.000392412
-0.000359889
-0.000326541
-0.000292398
-0.000257497
-0.00022188
-0.000185592
-0.000148686
-0.000111215
-7.32424e-05
-3.48331e-05
3.94157e-06
4.30053e-05
8.22771e-05
0.000121671
0.000161097
0.000200461
0.000239663
0.000278603
0.000317175
0.000355271
0.000392783
0.000429599
0.000465607
0.000500696
0.000534753
0.000567669
0.000599336
0.000629646
0.000658498
0.000685792
0.000711435
0.000735336
0.000757413
0.000777587
0.000795786
0.000811948
0.000826015
0.000837939
0.000847677
0.000855198
0.000860461
0.000863436
0.000864354
0.000863447
0.000860483
0.000855231
0.000847723
-0.000856521
-0.000852536
-0.000847791
-0.000842282
-0.000836004
-0.000828953
-0.000821123
-0.000812508
-0.000803104
-0.000792904
-0.000781901
-0.00077009
-0.000757464
-0.000744017
-0.000729743
-0.000714637
-0.000698693
-0.000681906
-0.000664274
-0.000645792
-0.000626458
-0.000606271
-0.000585232
-0.000563342
-0.000540604
-0.000517023
-0.000492607
-0.000467363
-0.000441304
-0.000414443
-0.000386798
-0.000358387
-0.000329232
-0.000299361
-0.000268802
-0.000237587
-0.000205754
-0.000173342
-0.000140395
-0.000106961
-7.30932e-05
-3.88466e-05
-4.28155e-06
3.05379e-05
6.55438e-05
0.000100664
0.000135825
0.000170946
0.000205945
0.00024074
0.000275241
0.00030936
0.000343005
0.000376084
0.000408504
0.00044017
0.000470989
0.000500868
0.000529715
0.00055744
0.000583954
0.000609173
0.000633014
0.000655398
0.000676253
0.000695507
0.000713097
0.000728963
0.000743053
0.000755318
0.000765717
0.000774218
0.000780791
0.000785403
0.000788032
0.000788853
0.000788047
0.000785434
0.000780837
0.00077428
-0.000770369
-0.000766535
-0.000761975
-0.000756686
-0.000750665
-0.00074391
-0.000736416
-0.00072818
-0.000719199
-0.000709468
-0.000698985
-0.000687746
-0.000675747
-0.000662985
-0.000649457
-0.000635162
-0.000620097
-0.000604261
-0.000587654
-0.000570276
-0.000552128
-0.000533213
-0.000513535
-0.000493098
-0.00047191
-0.000449978
-0.000427312
-0.000403925
-0.00037983
-0.000355043
-0.000329584
-0.000303473
-0.000276734
-0.000249393
-0.00022148
-0.000193027
-0.000164068
-0.000134643
-0.000104793
-7.45628e-05
-4.4e-05
-1.31559e-05
1.79152e-05
4.91558e-05
8.05057e-05
0.000111902
0.000143277
0.000174564
0.000205692
0.000236587
0.000267174
0.000297378
0.00032712
0.000356323
0.000384906
0.000412792
0.000439901
0.000466155
0.000491478
0.000515793
0.000539028
0.000561111
0.000581973
0.00060155
0.00061978
0.000636605
0.000651971
0.000665828
0.000678133
0.000688846
0.000697932
0.000705363
0.000711115
0.000715162
0.000717483
0.000718217
0.000717502
0.000715199
0.000711172
0.000705439
-0.000692789
-0.000689133
-0.000684788
-0.000679752
-0.000674025
-0.000667605
-0.000660489
-0.000652676
-0.000644164
-0.000634952
-0.000625037
-0.000614419
-0.000603096
-0.000591069
-0.000578335
-0.000564896
-0.000550753
-0.000535907
-0.00052036
-0.000504116
-0.000487177
-0.000469551
-0.000451242
-0.000432258
-0.000412609
-0.000392305
-0.000371357
-0.00034978
-0.000327589
-0.000304802
-0.000281439
-0.00025752
-0.00023307
-0.000208116
-0.000182685
-0.000156809
-0.000130522
-0.000103859
-7.68596e-05
-4.95645e-05
-2.20176e-05
5.73463e-06
3.36434e-05
6.16574e-05
8.97231e-05
0.000117785
0.000145784
0.000173662
0.000201357
0.000228805
0.000255942
0.000282704
0.000309022
0.000334832
0.000360066
0.000384656
0.000408537
0.000431642
0.000453908
0.00047527
0.000495667
0.00051504
0.00053333
0.000550485
0.000566451
0.000581181
0.00059463
0.000606756
0.000617523
0.000626897
0.00063485
0.000641357
0.000646399
0.000649954
0.000652005
0.00065266
0.000652027
0.000649997
0.000646464
0.000641443
-0.000622966
-0.000619504
-0.000615393
-0.000610633
-0.000605223
-0.000599162
-0.000592451
-0.000585088
-0.000577073
-0.000568406
-0.000559087
-0.000549117
-0.000538496
-0.000527226
-0.000515308
-0.000502745
-0.000489539
-0.000475693
-0.000461213
-0.000446103
-0.000430368
-0.000414017
-0.000397058
-0.000379499
-0.00036135
-0.000342625
-0.000323337
-0.000303499
-0.000283129
-0.000262244
-0.000240866
-0.000219014
-0.000196713
-0.000173989
-0.000150868
-0.00012738
-0.000103557
-7.94332e-05
-5.50431e-05
-3.04249e-05
-5.61856e-06
1.93342e-05
4.43895e-05
6.95018e-05
9.46234e-05
0.000119705
0.000144697
0.000169545
0.000194198
0.0002186
0.000242695
0.000266428
0.000289742
0.00031258
0.000334884
0.000356599
0.000377667
0.000398033
0.000417643
0.000436442
0.00045438
0.000471405
0.000487471
0.000502531
0.000516542
0.000529463
0.000541257
0.000551889
0.000561328
0.000569546
0.00057652
0.000582229
0.000586656
0.000589783
0.000591597
0.000592181
0.00059162
0.00058983
0.000586726
0.000582323
-0.000560149
-0.000556891
-0.000553025
-0.000548552
-0.000543471
-0.000537783
-0.000531489
-0.000524588
-0.000517083
-0.000508973
-0.000500261
-0.000490948
-0.000481036
-0.000470528
-0.000459428
-0.000447738
-0.000435463
-0.000422608
-0.00040918
-0.000395183
-0.000380626
-0.000365517
-0.000349866
-0.000333682
-0.000316977
-0.000299764
-0.000282057
-0.000263872
-0.000245224
-0.000226133
-0.000206617
-0.000186698
-0.000166398
-0.000145743
-0.000124758
-0.000103471
-8.19104e-05
-6.01085e-05
-3.80976e-05
-1.59122e-05
6.41167e-06
2.88363e-05
5.13226e-05
7.38298e-05
9.63159e-05
0.000118738
0.00014105
0.000163208
0.000185165
0.000206874
0.000228286
0.000249354
0.000270027
0.000290259
0.000309999
0.0003292
0.000347813
0.000365792
0.00038309
0.000399661
0.000415463
0.000430453
0.000444589
0.000457835
0.000470153
0.000481508
0.000491871
0.00050121
0.000509501
0.00051672
0.000522847
0.000527864
0.000531757
0.000534513
0.000536118
0.000536639
0.000536143
0.000534563
0.000531833
0.000527964
-0.000503648
-0.000500599
-0.000496982
-0.0004928
-0.000488052
-0.000482741
-0.000476867
-0.000470431
-0.000463436
-0.000455883
-0.000447775
-0.000439114
-0.000429904
-0.000420149
-0.000409853
-0.00039902
-0.000387655
-0.000375766
-0.000363358
-0.000350439
-0.000337018
-0.000323102
-0.000308704
-0.000293833
-0.000278501
-0.000262722
-0.000246509
-0.000229879
-0.000212848
-0.000195432
-0.000177653
-0.000159529
-0.000141083
-0.000122337
-0.000103317
-8.40475e-05
-6.4556e-05
-4.48712e-05
-2.50228e-05
-5.04235e-06
1.50378e-05
3.51838e-05
5.53605e-05
7.55319e-05
9.56608e-05
0.000115709
0.000135637
0.000155405
0.000174973
0.000194299
0.000213343
0.000232061
0.000250413
0.000268356
0.000285848
0.000302848
0.000319316
0.00033521
0.000350492
0.000365123
0.000379066
0.000392285
0.000404746
0.000416416
0.000427265
0.000437263
0.000446384
0.000454604
0.0004619
0.000468252
0.000473644
0.000478061
0.000481492
0.000483923
0.000485345
0.00048581
0.000485371
0.000483975
0.00048157
0.000478166
-0.000452838
-0.000449996
-0.000446628
-0.000442735
-0.000438319
-0.00043338
-0.000427921
-0.000421944
-0.000415451
-0.000408444
-0.000400928
-0.000392905
-0.00038438
-0.000375357
-0.00036584
-0.000355836
-0.00034535
-0.00033439
-0.000322962
-0.000311074
-0.000298736
-0.000285956
-0.000272746
-0.000259117
-0.00024508
-0.000230649
-0.000215838
-0.000200661
-0.000185136
-0.000169279
-0.000153109
-0.000136644
-0.000119906
-0.000102915
-8.56955e-05
-6.82702e-05
-5.06643e-05
-3.29042e-05
-1.50168e-05
2.96931e-06
2.1025e-05
3.91198e-05
5.72226e-05
7.53012e-05
9.33226e-05
0.000111253
0.000129058
0.000146703
0.000164153
0.00018137
0.000198321
0.000214967
0.000231274
0.000247204
0.000262722
0.000277793
0.000292381
0.000306452
0.000319972
0.000332909
0.000345231
0.000356908
0.00036791
0.000378209
0.00038778
0.000396599
0.000404641
0.000411888
0.00041832
0.00042392
0.000428674
0.000432569
0.000435596
0.000437745
0.000439006
0.000439422
0.000439033
0.000437798
0.000435676
0.000432676
-0.000407147
-0.000404509
-0.000401385
-0.000397776
-0.000393683
-0.000389108
-0.000384054
-0.000378523
-0.000372517
-0.000366041
-0.000359097
-0.00035169
-0.000343824
-0.000335504
-0.000326736
-0.000317525
-0.000307879
-0.000297803
-0.000287306
-0.000276397
-0.000265083
-0.000253375
-0.000241284
-0.000228821
-0.000215997
-0.000202825
-0.00018932
-0.000175495
-0.000161367
-0.000146951
-0.000132265
-0.000117327
-0.000102157
-8.67736e-05
-7.11988e-05
-5.54544e-05
-3.95632e-05
-2.35491e-05
-7.43685e-06
8.7481e-06
2.49793e-05
4.12297e-05
5.74713e-05
7.36756e-05
8.98133e-05
0.000105855
0.00012177
0.000137527
0.000153097
0.000168446
0.000183545
0.000198362
0.000212865
0.000227023
0.000240806
0.000254181
0.00026712
0.000279593
0.000291571
0.000303027
0.000313932
0.000324261
0.00033399
0.000343094
0.000351552
0.000359342
0.000366446
0.000372845
0.000378524
0.000383469
0.000387668
0.000391109
0.000393784
0.000395686
0.000396806
0.000397177
0.000396833
0.00039574
0.000393865
0.000391217
-0.00036606
-0.000363621
-0.000360733
-0.000357397
-0.000353617
-0.000349393
-0.000344728
-0.000339626
-0.000334089
-0.000328121
-0.000321725
-0.000314907
-0.00030767
-0.00030002
-0.000291964
-0.000283506
-0.000274654