/*--------------------------------*- C++ -*----------------------------------*\
| =========                 |                                                 |
| \\      /  F ield         | OpenFOAM: The Open Source CFD Toolbox           |
|  \\    /   O peration     | Version:  2306                                  |
|   \\  /    A nd           | Website:  www.openfoam.com                      |
|    \\/     M anipulation  |                                                 |
\*---------------------------------------------------------------------------*/
FoamFile
{
    version     2.0;
    format      ascii;
    arch        "LSB;label=32;scalar=64";
    class       surfaceScalarField;
    location    "75";
    object      phi;
}
// * * * * * * * * * * * * * * * * * * * * * * * * * * * * * * * * * * * * * //

dimensions      [0 3 -1 0 0 0 0];

oriented        oriented;

internalField   nonuniform List<scalar> 
37980
(
-0.0559793
0.0102353
3.83334e-11
-0.0662536
0.0102743
3.69082e-11
-0.0765728
0.0103192
2.84386e-11
-0.0869431
0.0103703
1.70874e-11
-0.0973708
0.0104276
1.85752e-11
-0.107862
0.0104913
2.03857e-11
-0.118424
0.0105616
2.42594e-11
-0.129062
0.0106385
2.49775e-11
-0.139784
0.0107223
2.81273e-11
-0.150597
0.0108131
2.82064e-11
-0.161509
0.010911
3.13723e-11
-0.172525
0.0110163
3.11617e-11
-0.183654
0.0111291
3.45462e-11
-0.194904
0.0112496
3.41601e-11
-0.206281
0.0113778
3.78895e-11
-0.217795
0.0115139
3.73941e-11
-0.229453
0.0116581
4.15578e-11
-0.241264
0.0118105
4.09729e-11
-0.253235
0.0119711
4.56346e-11
-0.265375
0.0121399
4.4948e-11
-0.277692
0.0123171
5.01637e-11
-0.290195
0.0125025
4.93422e-11
-0.30289
0.012696
5.51715e-11
-0.315788
0.0128973
5.41609e-11
-0.328894
0.0131061
6.0664e-11
-0.342216
0.0133219
5.93728e-11
-0.35576
0.0135441
6.65919e-11
-0.369531
0.0137715
6.48611e-11
-0.383534
0.0140031
7.27902e-11
-0.397772
0.0142372
7.03756e-11
-0.412243
0.0144717
7.89837e-11
-0.426948
0.0147042
7.56747e-11
-0.441879
0.0149315
8.51609e-11
-0.457029
0.0151499
8.12658e-11
-0.472384
0.0153547
9.27706e-11
-0.487924
0.0155406
9.00318e-11
-0.503626
0.0157018
1.06497e-10
-0.519458
0.0158318
1.08338e-10
-0.535383
0.0159248
1.33379e-10
-0.551359
0.0159759
1.41033e-10
-0.567343
0.0159845
1.71667e-10
-0.583301
0.0159575
1.72877e-10
-0.599217
0.0159165
1.8646e-10
-0.615126
0.015909
1.46119e-10
-0.631153
0.016027
1.02307e-10
-0.647587
0.0164343
-9.27892e-12
-0.664995
0.0174078
-1.11073e-10
-0.684389
0.0193943
-2.22898e-10
-0.707476
0.0230863
-2.38206e-10
-0.73699
0.0295144
-9.24649e-11
-0.777145
0.0401551
2.91428e-10
-0.834198
0.0570533
1.04212e-09
-0.917117
0.0829181
2.07779e-09
-1.03798
0.120859
3.27452e-09
-1.21112
0.173148
3.96503e-09
-1.45225
0.241128
3.56438e-09
-1.77808
0.325824
1.53182e-09
-2.21256
0.43448
3.92039e-10
-2.83465
0.62209
1.60324e-08
-3.76045
0.925808
5.33755e-08
-5.20912
1.44867
1.12697e-08
-3.85267
3.36825
1.00498e-07
-3.19521
4.06724
-4.61449e-09
-2.78393
4.31342
-6.79694e-09
-2.4621
4.40287
-1.15259e-08
-2.17621
4.43882
-1.51451e-08
-1.90819
4.45668
-1.96196e-08
-1.6524
4.46892
-1.93928e-08
-1.40715
4.47946
-1.84907e-08
-1.17163
4.48918
-1.56936e-08
-0.944961
4.49803
-1.34687e-08
-0.726033
4.50578
-1.09404e-08
-0.513531
4.5122
-9.38979e-09
-0.305959
4.51713
-8.07379e-09
-0.101602
4.52035
-7.18816e-09
0.101601
4.5215
-5.26642e-09
0.305958
4.52035
-9.48085e-09
0.51353
4.51713
-7.54912e-09
0.726031
4.5122
-1.38421e-08
4.50578
-1.41432e-08
-0.15317
0.0382468
2.07511e-12
-0.181299
0.0384033
-3.05708e-13
-0.209567
0.0385869
-1.04172e-11
-0.237995
0.0387979
-1.84991e-11
-0.266604
0.0390369
-1.87791e-11
-0.295417
0.0393045
-1.69301e-11
-0.324457
0.0396015
-1.61883e-11
-0.353747
0.0399287
-1.55923e-11
-0.383312
0.040287
-1.59929e-11
-0.413176
0.0406774
-1.59994e-11
-0.443366
0.041101
-1.68453e-11
-0.473908
0.0415589
-1.71118e-11
-0.504832
0.0420524
-1.82349e-11
-0.536165
0.0425828
-1.86465e-11
-0.567939
0.0431517
-1.99637e-11
-0.600185
0.0437605
-2.0457e-11
-0.632938
0.0444109
-2.1931e-11
-0.666233
0.0451048
-2.24824e-11
-0.700106
0.0458441
-2.41066e-11
-0.734596
0.0466307
-2.47136e-11
-0.769746
0.047467
-2.6496e-11
-0.805599
0.0483553
-2.71648e-11
-0.842201
0.0492979
-2.91218e-11
-0.879601
0.0502977
-2.98671e-11
-0.917853
0.0513573
-3.20344e-11
-0.95701
0.0524797
-3.28985e-11
-0.997134
0.0536681
-3.53645e-11
-1.03829
0.0549258
-3.64625e-11
-1.08054
0.0562562
-3.94303e-11
-1.12397
0.0576631
-4.1007e-11
-1.16865
0.0591506
-4.48287e-11
-1.21467
0.0607231
-4.72077e-11
-1.26212
0.0623856
-5.21904e-11
-1.31111
0.0641438
-5.53266e-11
-1.36176
0.0660048
-6.09615e-11
-1.4142
0.0679773
-6.33444e-11
-1.46857
0.0700729
-6.70228e-11
-1.52505
0.0723077
-6.47747e-11
-1.58383
0.0747049
-6.20496e-11
-1.64515
0.0772987
-5.19649e-11
-1.70931
0.0801413
-4.35932e-11
-1.77666
0.0833132
-3.5469e-11
-1.84769
0.0869396
-4.39831e-11
-1.92299
0.0912166
-7.65606e-11
-2.00342
0.09645
-1.54136e-10
-2.09009
0.103112
-2.78734e-10
-2.18461
0.111919
-4.58691e-10
-2.28915
0.123939
-6.46106e-10
-2.40678
0.140712
-8.19454e-10
-2.54165
0.164383
-8.31767e-10
-2.69931
0.197823
-6.47606e-10
-2.88692
0.244663
-4.8149e-11
-3.11318
0.309177
8.97675e-10
-3.3883
0.395979
2.12962e-09
-3.7248
0.509644
3.37777e-09
-4.13956
0.655889
5.35997e-09
-4.66055
0.846816
7.70781e-09
-5.33233
1.10626
8.76016e-09
-6.17268
1.46244
1.15307e-08
-7.14744
1.90057
2.02905e-08
-8.05313
2.35436
1.76122e-08
-7.52408
2.83921
-1.70083e-08
-6.66437
3.20753
-2.01683e-08
-5.81008
3.45914
-2.01566e-08
-5.04106
3.63385
-1.93706e-08
-4.36154
3.7593
-1.82404e-08
-3.75745
3.85259
-1.53206e-08
-3.21255
3.92401
-1.15198e-08
-2.71286
3.97977
-7.3987e-09
-2.24742
4.02375
-3.46208e-09
-1.80782
4.05843
-1.97179e-10
-1.38754
4.08549
2.28242e-09
-0.981369
4.10603
3.88617e-09
-0.584942
4.1207
4.828e-09
-0.194328
4.12973
5.26249e-09
0.194325
4.13285
6.58857e-09
0.584939
4.12973
5.38886e-09
0.981367
4.1207
6.06859e-09
1.38754
4.10603
2.72593e-09
4.08549
5.72391e-10
-0.210077
0.0766643
-2.45939e-12
-0.248658
0.0769845
-8.27044e-12
-0.287434
0.0773624
-1.30493e-11
-0.326435
0.077799
-2.17314e-11
-0.365694
0.0782954
-2.05324e-11
-0.405242
0.0788529
-1.75146e-11
-0.445114
0.0794732
-1.57391e-11
-0.485343
0.0801582
-1.45498e-11
-0.525966
0.08091
-1.43968e-11
-0.56702
0.0817308
-1.4084e-11
-0.608542
0.0826231
-1.45163e-11
-0.650573
0.0835899
-1.45382e-11
-0.693155
0.0846341
-1.52724e-11
-0.736331
0.0857591
-1.54598e-11
-0.780148
0.0869685
-1.63875e-11
-0.824654
0.0882665
-1.66695e-11
-0.8699
0.0896573
-1.77533e-11
-0.915941
0.0911457
-1.81116e-11
-0.962834
0.092737
-1.93533e-11
-1.01064
0.0944369
-1.9798e-11
-1.05942
0.0962516
-2.12198e-11
-1.10926
0.098188
-2.17759e-11
-1.16021
0.100254
-2.34166e-11
-1.21237
0.102457
-2.41261e-11
-1.26582
0.104806
-2.60501e-11
-1.32065
0.107312
-2.69885e-11
-1.37697
0.109986
-2.93176e-11
-1.43488
0.112839
-3.06368e-11
-1.49451
0.115887
-3.36062e-11
-1.55599
0.119143
-3.55874e-11
-1.61947
0.122626
-3.95824e-11
-1.6851
0.126356
-4.2598e-11
-1.75307
0.130356
-4.79847e-11
-1.82358
0.134652
-5.20928e-11
-1.89685
0.139276
-5.85053e-11
-1.97314
0.144266
-6.23989e-11
-2.05274
0.149668
-6.7459e-11
-2.13597
0.155538
-6.74172e-11
-2.22321
0.161949
-6.66073e-11
-2.31491
0.168992
-5.87422e-11
-2.41155
0.176789
-5.11697e-11
-2.51374
0.185504
-4.21254e-11
-2.62216
0.195361
-4.53216e-11
-2.73762
0.206673
-6.75855e-11
-2.86105
0.219883
-1.26541e-10
-2.99356
0.235618
-2.27998e-10
-3.13641
0.254769
-3.77188e-10
-3.29105
0.27858
-5.4535e-10
-3.4591
0.30876
-7.06364e-10
-3.6423
0.347586
-7.62966e-10
-3.84245
0.397976
-6.70973e-10
-4.06127
0.463482
-2.96792e-10
-4.30027
0.54818
3.32962e-10
-4.5608
0.656507
1.15434e-09
-4.84436
0.793204
1.99239e-09
-5.15188
0.963405
3.00972e-09
-5.47656
1.1715
4.44204e-09
-5.7884
1.4181
6.02179e-09
-6.02306
1.69711
7.00422e-09
-6.11605
1.99356
5.38012e-09
-6.04487
2.28318
2.99625e-09
-5.75842
2.55276
1.30411e-09
-5.34161
2.79072
-6.74478e-10
-4.87515
2.99268
-2.69007e-09
-4.39969
3.15839
-3.81713e-09
-3.93217
3.29178
-4.30074e-09
-3.478
3.39842
-4.29563e-09
-3.03758
3.4836
-3.70035e-09
-2.60949
3.55168
-2.6413e-09
-2.19177
3.60602
-1.66949e-09
-1.78248
3.64914
-7.02403e-10
-1.37982
3.68284
-2.20707e-11
-0.982149
3.70836
4.72347e-10
-0.587933
3.72649
7.36825e-10
-0.195752
3.73755
8.62649e-10
0.195754
3.74134
1.30325e-09
0.587935
3.73755
1.28016e-09
0.982151
3.72649
1.39117e-09
1.37982
3.70836
7.39372e-10
3.68284
-1.64798e-10
-0.233839
0.119423
2.52461e-11
-0.276778
0.119923
2.59348e-11
-0.31993
0.120515
1.5687e-11
-0.363332
0.121201
1.12713e-11
-0.407019
0.121982
1.14229e-11
-0.451028
0.122861
1.29771e-11
-0.495395
0.12384
1.37589e-11
-0.540159
0.124923
1.45483e-11
-0.585362
0.126112
1.48139e-11
-0.631043
0.127412
1.54637e-11
-0.677247
0.128827
1.56898e-11
-0.724018
0.130361
1.63924e-11
-0.771403
0.13202
1.66365e-11
-0.819453
0.133808
1.74208e-11
-0.868218
0.135734
1.77025e-11
-0.917754
0.137802
1.85882e-11
-0.968118
0.140022
1.89227e-11
-1.01937
0.1424
1.99245e-11
-1.07158
0.144947
2.03243e-11
-1.12482
0.147671
2.14553e-11
-1.17915
0.150585
2.19325e-11
-1.23466
0.1537
2.32067e-11
-1.29144
0.157029
2.37746e-11
-1.34957
0.160588
2.52061e-11
-1.40916
0.164393
2.58719e-11
-1.4703
0.168461
2.74639e-11
-1.53313
0.172815
2.82068e-11
-1.59777
0.177475
2.99203e-11
-1.66435
0.182469
3.06491e-11
-1.73303
0.187825
3.23599e-11
-1.80398
0.193575
3.28755e-11
-1.87738
0.199758
3.43898e-11
-1.95345
0.206417
3.4499e-11
-2.03239
0.2136
3.58545e-11
-2.11448
0.221366
3.59222e-11
-2.2
0.229783
3.82408e-11
-2.28926
0.238929
4.02934e-11
-2.38262
0.248901
4.6823e-11
-2.48049
0.259813
5.50429e-11
-2.5833
0.271804
7.00012e-11
-2.69156
0.285048
8.69738e-11
-2.80581
0.299759
1.07914e-10
-2.92667
0.316213
1.23353e-10
-3.05475
0.33476
1.28297e-10
-3.19073
0.355861
1.09015e-10
-3.33523
0.380119
5.83806e-11
-3.4888
0.408332
-3.16278e-11
-3.65176
0.441547
-1.48578e-10
-3.82413
0.48113
-2.814e-10
-4.00536
0.528816
-3.74563e-10
-4.19414
0.58675
-4.0394e-10
-4.38813
0.657473
-2.84548e-10
-4.58379
0.743845
-1.38817e-11
-4.77619
0.848899
4.33494e-10
-4.95856
0.975579
9.99017e-10
-5.12122
1.12606
1.61464e-09
-5.25006
1.30034
2.25235e-09
-5.32693
1.49497
2.75138e-09
-5.33312
1.7033
3.14744e-09
-5.25631
1.91675
3.27181e-09
-5.09897
2.12583
3.13935e-09
-4.86944
2.32323
2.48997e-09
-4.5825
2.50378
1.66779e-09
-4.25441
2.66458
6.85036e-10
-3.90033
2.80432
-5.43575e-11
-3.53192
2.92336
-6.54492e-10
-3.15686
3.02336
-9.0514e-10
-2.77982
3.10656
-1.02348e-09
-2.40337
3.17523
-9.32299e-10
-2.02874
3.23139
-8.24244e-10
-1.65634
3.27674
-6.58302e-10
-1.28606
3.31256
-5.4689e-10
-0.917511
3.33981
-4.48883e-10
-0.550132
3.35911
-3.97359e-10
-0.183329
3.37075
-3.61463e-10
0.183333
3.37468
-2.38926e-10
0.550136
3.37075
-1.30167e-10
0.917515
3.35911
-1.04525e-10
1.28607
3.33981
-1.14511e-10
3.31256
-3.65775e-10
-0.239683
0.163242
-5.13696e-12
-0.28368
0.16392
-1.11663e-11
-0.32789
0.164725
-1.26596e-11
-0.372346
0.165658
-2.01143e-11
-0.417086
0.166721
-1.86408e-11
-0.462143
0.167919
-1.58005e-11
-0.507557
0.169254
-1.42847e-11
-0.553366
0.170731
-1.33228e-11
-0.599608
0.172355
-1.33732e-11
-0.646325
0.17413
-1.31855e-11
-0.693561
0.176062
-1.37137e-11
-0.741358
0.178158
-1.37534e-11
-0.789764
0.180426
-1.45009e-11
-0.838828
0.182872
-1.46384e-11
-0.8886
0.185506
-1.55376e-11
-0.939133
0.188336
-1.57335e-11
-0.990486
0.191374
-1.67698e-11
-1.04272
0.194631
-1.70178e-11
-1.09589
0.198119
-1.81986e-11
-1.15007
0.201853
-1.85072e-11
-1.20533
0.205848
-1.98529e-11
-1.26176
0.210121
-2.02409e-11
-1.31942
0.21469
-2.17843e-11
-1.3784
0.219576
-2.22812e-11
-1.43881
0.224803
-2.40733e-11
-1.50075
0.230396
-2.47302e-11
-1.56432
0.236383
-2.68578e-11
-1.62964
0.242796
-2.77689e-11
-1.69684
0.249672
-3.03882e-11
-1.76607
0.25705
-3.17298e-11
-1.83747
0.264975
-3.5101e-11
-1.91121
0.2735
-3.71328e-11
-1.98747
0.282682
-4.15652e-11
-2.06646
0.292587
-4.44567e-11
-2.14839
0.303293
-4.99594e-11
-2.23349
0.314887
-5.32304e-11
-2.32203
0.32747
-5.87504e-11
-2.41429
0.341162
-6.04806e-11
-2.51058
0.356099
-6.33623e-11
-2.61122
0.372444
-6.0588e-11
-2.71656
0.390391
-5.85269e-11
-2.82697
0.410167
-5.16471e-11
-2.9428
0.432049
-4.95935e-11
-3.06441
0.45637
-5.08363e-11
-3.19209
0.483538
-6.86221e-11
-3.32603
0.514054
-1.03595e-10
-3.46623
0.548533
-1.67396e-10
-3.61242
0.587737
-2.50911e-10
-3.76388
0.632594
-3.55677e-10
-3.91929
0.684222
-4.47911e-10
-4.07647
0.743927
-5.1991e-10
-4.23218
0.813185
-5.17127e-10
-4.3819
0.893568
-4.37734e-10
-4.51963
0.986628
-2.41964e-10
-4.63774
1.09369
4.54749e-11
-4.72715
1.21547
3.89351e-10
-4.77832
1.35151
7.36381e-10
-4.78296
1.49961
9.90478e-10
-4.73559
1.65593
1.17109e-09
-4.63441
1.81556
1.20595e-09
-4.48195
1.97337
1.15132e-09
-4.2836
2.12488
9.1715e-10
-4.0464
2.26658
6.26386e-10
-3.77789
2.39607
2.6621e-10
-3.48561
2.51204
-3.0344e-11
-3.17633
2.61408
-2.85202e-10
-2.85552
2.70255
-4.46003e-10
-2.52727
2.77831
-5.32741e-10
-2.19445
2.84241
-5.5773e-10
-1.85898
2.89592
-5.58593e-10
-1.52206
2.93982
-5.33843e-10
-1.18438
2.97488
-5.16404e-10
-0.846295
3.00172
-4.99383e-10
-0.507935
3.02075
-4.91273e-10
-0.169346
3.03216
-4.84628e-10
0.16935
3.03598
-4.37744e-10
0.507939
3.03216
-3.81935e-10
0.846299
3.02075
-3.4765e-10
1.18438
3.00172
-3.18085e-10
2.97488
-4.01214e-10
-0.237733
0.206692
2.65211e-11
-0.28135
0.207537
2.83309e-11
-0.325165
0.208541
2.00352e-11
-0.369212
0.209705
1.77816e-11
-0.413523
0.211032
1.76889e-11
-0.458131
0.212528
1.84902e-11
-0.503072
0.214195
1.87908e-11
-0.548381
0.21604
1.92243e-11
-0.594094
0.218068
1.93963e-11
-0.640249
0.220285
1.99266e-11
-0.686886
0.222699
2.02416e-11
-0.734045
0.225317
2.09452e-11
-0.781767
0.228149
2.13826e-11
-0.830099
0.231203
2.22287e-11
-0.879084
0.234491
2.27633e-11
-0.928771
0.238024
2.37407e-11
-0.979212
0.241814
2.43702e-11
-1.03046
0.245877
2.54853e-11
-1.08257
0.250227
2.62221e-11
-1.13559
0.254882
2.74915e-11
-1.18961
0.259859
2.83566e-11
-1.24467
0.265181
2.98034e-11
-1.30084
0.270868
3.08225e-11
-1.35821
0.276947
3.24743e-11
-1.41686
0.283446
3.36754e-11
-1.47686
0.290394
3.55592e-11
-1.5383
0.297825
3.69643e-11
-1.60128
0.305779
3.90955e-11
-1.66591
0.314296
4.06999e-11
-1.73228
0.323424
4.3058e-11
-1.80052
0.333215
4.48049e-11
-1.87075
0.343728
4.732e-11
-1.94309
0.355029
4.91157e-11
-2.0177
0.367193
5.17507e-11
-2.09471
0.380303
5.36488e-11
-2.17428
0.394455
5.67152e-11
-2.25657
0.409757
5.93802e-11
-2.34174
0.426332
6.40719e-11
-2.42996
0.444319
6.92534e-11
-2.52139
0.463878
7.76953e-11
-2.61619
0.485193
8.751e-11
-2.7145
0.508475
1.00726e-10
-2.81642
0.533965
1.14129e-10
-2.92199
0.561945
1.2731e-10
-3.03119
0.592739
1.35109e-10
-3.14386
0.626723
1.34933e-10
-3.25966
0.664334
1.21464e-10
-3.378
0.706078
9.54438e-11
-3.49794
0.752531
5.52781e-11
-3.61807
0.804348
1.35226e-11
-3.73638
0.862244
-2.73182e-11
-3.85017
0.926972
-4.22334e-11
-3.95587
0.999272
-3.17812e-11
-4.04904
1.07979
2.66354e-11
-4.1243
1.16896
1.21845e-10
-4.17565
1.26682
2.51083e-10
-4.197
1.37286
3.93872e-10
-4.18318
1.4858
5.11916e-10
-4.13087
1.60361
5.99835e-10
-4.03901
1.7237
6.13516e-10
-3.90886
1.84323
5.85444e-10
-3.74343
1.95945
4.81901e-10
-3.54688
2.07003
3.6328e-10
-3.32395
2.17314
2.12775e-10
-3.07948
2.26757
8.88491e-11
-2.81804
2.35263
-2.63032e-11
-2.54361
2.42813
-9.89733e-11
-2.25952
2.49421
-1.53573e-10
-1.96834
2.55123
-1.7668e-10
-1.67205
2.59964
-1.90644e-10
-1.37212
2.63988
-1.92031e-10
-1.06959
2.67235
-1.94526e-10
-0.765235
2.69737
-1.95315e-10
-0.459642
2.71516
-1.95446e-10
-0.153299
2.72582
-1.90059e-10
0.153303
2.72938
-1.38234e-10
0.459646
2.72582
-1.5213e-10
0.765238
2.71516
-9.01495e-11
1.06959
2.69737
-1.11417e-10
2.67235
-1.13139e-10
-0.232505
0.249169
-1.20933e-11
-0.275132
0.250165
-1.63815e-11
-0.317938
0.251347
-1.4883e-11
-0.360952
0.252718
-1.86618e-11
-0.404202
0.254283
-1.73951e-11
-0.447719
0.256045
-1.5575e-11
-0.491534
0.258009
-1.47518e-11
-0.535676
0.260183
-1.42683e-11
-0.58018
0.262571
-1.45297e-11
-0.625077
0.265182
-1.45828e-11
-0.670401
0.268023
-1.51849e-11
-0.716188
0.271104
-1.54012e-11
-0.762473
0.274434
-1.61711e-11
-0.809294
0.278024
-1.647e-11
-0.85669
0.281886
-1.73709e-11
-0.9047
0.286034
-1.77322e-11
-0.953367
0.290481
-1.87579e-11
-1.00273
0.295244
-1.91767e-11
-1.05284
0.300339
-2.0331e-11
-1.10375
0.305786
-2.08089e-11
-1.15549
0.311605
-2.2101e-11
-1.20813
0.317819
-2.26443e-11
-1.26172
0.324452
-2.40907e-11
-1.3163
0.331533
-2.47117e-11
-1.37195
0.339091
-2.63376e-11
-1.42871
0.34716
-2.70581e-11
-1.48666
0.355776
-2.89044e-11
-1.54586
0.364978
-2.9763e-11
-1.60638
0.374812
-3.18987e-11
-1.66828
0.385326
-3.29684e-11
-1.73164
0.396575
-3.55103e-11
-1.79653
0.408618
-3.69117e-11
-1.86302
0.421523
-4.00249e-11
-1.93119
0.435362
-4.18987e-11
-2.00111
0.450219
-4.57138e-11
-2.07284
0.466185
-4.80655e-11
-2.14644
0.483362
-5.2431e-11
-2.22197
0.501862
-5.48186e-11
-2.29947
0.521811
-5.8972e-11
-2.37894
0.543351
-6.03284e-11
-2.46038
0.566638
-6.30332e-11
-2.54375
0.591844
-6.24038e-11
-2.62895
0.619164
-6.34487e-11
-2.71582
0.648811
-6.22425e-11
-2.8041
0.681022
-6.51334e-11
-2.89343
0.716057
-6.92626e-11
-2.9833
0.754203
-8.18079e-11
-3.07299
0.795769
-9.91262e-11
-3.16155
0.841087
-1.27321e-10
-3.24771
0.890505
-1.58277e-10
-3.32984
0.944373
-1.95445e-10
-3.40589
1.00303
-2.25203e-10
-3.47337
1.06675
-2.49524e-10
-3.52931
1.13574
-2.5532e-10
-3.57038
1.21002
-2.45347e-10
-3.59299
1.28943
-2.17495e-10
-3.5936
1.37347
-1.73978e-10
-3.56913
1.46133
-1.30076e-10
-3.51734
1.55183
-8.10881e-11
-3.43718
1.64354
-5.44675e-11
-3.32881
1.73486
-3.13069e-11
-3.19355
1.82419
-4.11014e-11
-3.0336
1.91008
-5.03284e-11
-2.85173
1.99127
-8.39278e-11
-2.65097
2.06681
-1.05392e-10
-2.43437
2.13604
-1.35957e-10
-2.20481
2.19856
-1.53312e-10
-1.96481
2.25421
-1.72461e-10
-1.71656
2.30297
-1.77114e-10
-1.46184
2.34492
-1.84176e-10
-1.20213
2.38018
-1.84061e-10
-0.938644
2.40887
-1.8724e-10
-0.672376
2.43111
-1.89887e-10
-0.404186
2.44697
-1.94829e-10
-0.134855
2.45649
-1.99316e-10
0.134858
2.45967
-1.70455e-10
0.404189
2.45649
-1.90353e-10
0.672379
2.44697
-2.09366e-10
0.938647
2.43111
-2.49241e-10
2.40887
-3.24873e-10
-0.225635
0.29037
1.49873e-11
-0.266967
0.291496
1.84594e-11
-0.308453
0.292833
1.38164e-11
-0.350119
0.294384
1.55408e-11
-0.391989
0.296153
1.52771e-11
-0.434089
0.298145
1.5034e-11
-0.476445
0.300365
1.46597e-11
-0.519083
0.30282
1.46311e-11
-0.562029
0.305517
1.46169e-11
-0.605311
0.308464
1.48869e-11
-0.648957
0.311669
1.51007e-11
-0.692995
0.315142
1.5553e-11
-0.737454
0.318893
1.58912e-11
-0.782364
0.322934
1.64546e-11
-0.827755
0.327278
1.68686e-11
-0.873659
0.331938
1.75178e-11
-0.920107
0.336929
1.79969e-11
-0.967131
0.342269
1.87329e-11
-1.01477
0.347974
1.92854e-11
-1.06305
0.354065
2.01213e-11
-1.11201
0.360564
2.07649e-11
-1.16168
0.367492
2.17196e-11
-1.2121
0.374876
2.24754e-11
-1.26331
0.382744
2.357e-11
-1.31535
0.391126
2.44617e-11
-1.36824
0.400054
2.57182e-11
-1.42203
0.409566
2.67684e-11
-1.47675
0.4197
2.82054e-11
-1.53244
0.430499
2.9429e-11
-1.58913
0.442012
3.10522e-11
-1.64684
0.454288
3.24437e-11
-1.70561
0.467386
3.4232e-11
-1.76545
0.481365
3.57559e-11
-1.82638
0.496294
3.76631e-11
-1.88841
0.512247
3.92777e-11
-1.95153
0.529303
4.12917e-11
-2.01572
0.547551
4.30612e-11
-2.08094
0.567086
4.53604e-11
-2.14714
0.588013
4.76432e-11
-2.21424
0.610444
5.07525e-11
-2.2821
0.634502
5.42605e-11
-2.35057
0.660318
5.88694e-11
-2.41944
0.688033
6.41388e-11
-2.48843
0.717799
7.01641e-11
-2.55718
0.749773
7.62152e-11
-2.62525
0.784123
8.13781e-11
-2.69207
0.821021
8.5078e-11
-2.75694
0.860641
8.51093e-11
-2.81901
0.903154
8.13922e-11
-2.87723
0.948723
7.2972e-11
-2.93034
0.997491
6.08044e-11
-2.97689
1.04957
4.58495e-11
-3.01515
1.10502
3.11632e-11
-3.04324
1.16382
1.77726e-11
-3.05908
1.22586
9.77136e-12
-3.06056
1.29091
5.76957e-12
-3.04564
1.35855
1.03961e-11
-3.01255
1.42824
1.61011e-11
-2.95996
1.49923
2.96261e-11
-2.88709
1.57067
3.73008e-11
-2.79386
1.64163
4.98948e-11
-2.68081
1.71114
5.09292e-11
-2.54901
1.77828
5.53228e-11
-2.39998
1.84224
4.73349e-11
-2.23552
1.90234
4.40178e-11
-2.05751
1.95804
3.11116e-11
-1.86788
2.00893
2.42085e-11
-1.66841
2.05475
1.15252e-11
-1.46077
2.09533
5.22075e-12
-1.24643
2.13058
-3.84295e-12
-1.02671
2.16045
-7.75719e-12
-0.802758
2.18492
-1.33202e-11
-0.575623
2.20397
-1.74678e-11
-0.346258
2.2176
-2.02189e-11
-0.115566
2.22579
-1.43739e-11
0.115568
2.22853
4.88448e-11
0.346259
2.22579
-6.26069e-11
0.575625
2.2176
-3.29249e-11
0.80276
2.20397
-1.75418e-10
2.18492
-1.98612e-10
-0.217696
0.330098
-2.03657e-11
-0.257533
0.331333
-2.35198e-11
-0.297499
0.332799
-1.68044e-11
-0.337614
0.334498
-1.69746e-11
-0.377897
0.336437
-1.73133e-11
-0.418371
0.338618
-1.6647e-11
-0.459055
0.341049
-1.65375e-11
-0.49997
0.343736
-1.6519e-11
-0.541138
0.346685
-1.69272e-11
-0.582579
0.349905
-1.71754e-11
-0.624316
0.353405
-1.77895e-11
-0.666369
0.357195
-1.81581e-11
-0.70876
0.361284
-1.89124e-11
-0.751512
0.365685
-1.93853e-11
-0.794645
0.370411
-2.02767e-11
-0.838183
0.375475
-2.08299e-11
-0.882147
0.380893
-2.18396e-11
-0.926558
0.38668
-2.24663e-11
-0.971439
0.392855
-2.35929e-11
-1.01681
0.399437
-2.42892e-11
-1.06269
0.406447
-2.55317e-11
-1.10911
0.413907
-2.62949e-11
-1.15607
0.421842
-2.76547e-11
-1.20361
0.430279
-2.84852e-11
-1.25173
0.439246
-2.99659e-11
-1.30045
0.448775
-3.08673e-11
-1.34978
0.458899
-3.24775e-11
-1.39974
0.469654
-3.34592e-11
-1.45032
0.481081
-3.52147e-11
-1.50153
0.493222
-3.62975e-11
-1.55336
0.506122
-3.82281e-11
-1.60581
0.519831
-3.94521e-11
-1.65885
0.534403
-4.16078e-11
-1.71245
0.549894
-4.30353e-11
-1.76657
0.566368
-4.54775e-11
-1.82115
0.58389
-4.71711e-11
-1.87613
0.60253
-4.99235e-11
-1.93141
0.622364
-5.18719e-11
-1.98687
0.643473
-5.48178e-11
-2.04237
0.66594
-5.68317e-11
-2.09772
0.689855
-5.96337e-11
-2.15271
0.71531
-6.13874e-11
-2.20708
0.742401
-6.36714e-11
-2.26051
0.771225
-6.47929e-11
-2.31261
0.801879
-6.61976e-11
-2.36295
0.834462
-6.75168e-11
-2.411
0.869064
-6.97684e-11
-2.45613
0.905772
-7.30528e-11
-2.49763
0.944659
-7.81512e-11
-2.53469
0.98578
-8.59012e-11
-2.56637
1.02917
-9.65067e-11
-2.59162
1.07483
-9.91202e-11
-2.60932
1.12271
-1.30911e-10
-2.61822
1.17273
-1.37758e-10
-2.61708
1.22472
-1.51085e-10
-2.60462
1.27845
-1.64893e-10
-2.57966
1.3336
-1.72379e-10
-2.5412
1.38978
-1.80115e-10
-2.48846
1.44649
-1.7921e-10
-2.42098
1.50319
-1.80281e-10
-2.33865
1.5593
-1.72561e-10
-2.24172
1.6142
-1.69695e-10
-2.13075
1.66732
-1.59205e-10
-2.0066
1.7181
-1.55895e-10
-1.87032
1.76606
-1.46304e-10
-1.72307
1.81079
-1.44518e-10
-1.56609
1.85195
-1.37371e-10
-1.40061
1.88927
-1.36862e-10
-1.22784
1.92256
-1.31545e-10
-1.04892
1.95166
-1.30637e-10
-0.864915
1.97645
-1.2592e-10
-0.676844
1.99685
-1.24364e-10
-0.485659
2.01278
-1.23055e-10
-0.292272
2.02421
-1.22961e-10
-0.0975699
2.03109
-1.16294e-10
0.0975711
2.03339
-5.85704e-11
0.292273
2.03109
-1.60427e-10
0.48566
2.02421
-1.84135e-10
0.676845
2.01278
-3.42418e-10
1.99685
-4.21972e-10
-0.208951
0.368206
4.56159e-12
-0.247145
0.369527
8.7162e-12
-0.28544
0.371094
7.84668e-12
-0.323852
0.372911
1.22076e-11
-0.362398
0.374982
1.15943e-11
-0.401091
0.377312
1.03917e-11
-0.439949
0.379907
9.48185e-12
-0.478987
0.382773
9.08368e-12
-0.518219
0.385917
8.9317e-12
-0.557661
0.389348
8.97047e-12
-0.597329
0.393073
9.08155e-12
-0.637237
0.397103
9.28191e-12
-0.677399
0.401447
9.49768e-12
-0.717831
0.406117
9.76901e-12
-0.758545
0.411125
1.00329e-11
-0.799554
0.416485
1.03447e-11
-0.840872
0.422211
1.06422e-11
-0.882511
0.428318
1.09912e-11
-0.92448
0.434824
1.13269e-11
-0.966789
0.441747
1.1721e-11
-1.00945
0.449105
1.2106e-11
-1.05246
0.456921
1.25566e-11
-1.09583
0.465216
1.3005e-11
-1.13957
0.474015
1.35238e-11
-1.18367
0.483344
1.40502e-11
-1.22813
0.493232
1.46475e-11
-1.27293
0.503707
1.52654e-11
-1.31808
0.514802
1.59482e-11
-1.36355
0.526551
1.66675e-11
-1.40932
0.53899
1.74349e-11
-1.45536
0.552159
1.82572e-11
-1.50163
0.566099
1.90937e-11
-1.54808
0.580854
2.00048e-11
-1.59465
0.596469
2.08731e-11
-1.64128
0.612994
2.18399e-11
-1.68787
0.63048
2.26817e-11
-1.73432
0.648981
2.36646e-11
-1.78051
0.668553
2.44248e-11
-1.82629
0.689252
2.54179e-11
-1.87149
0.71114
2.60904e-11
-1.9159
0.734274
2.71704e-11
-1.95931
0.758716
2.78252e-11
-2.00143
0.784525
2.91321e-11
-2.04197
0.811757
2.98212e-11
-2.08055
0.840466
3.13749e-11
-2.11679
0.870701
3.18281e-11
-2.15023
0.902501
3.31271e-11
-2.18035
0.935896
3.24324e-11
-2.2066
0.970903
3.23081e-11
-2.22834
1.00752
2.89849e-11
-2.24489
1.04572
2.59659e-11
-2.25553
1.08547
1.86926e-11
-2.25949
1.12667
1.23845e-11
-2.25598
1.16921
1.36554e-12
-2.24421
1.21294
-7.66599e-12
-2.22342
1.25766
-2.04972e-11
-2.19292
1.3031
-2.94216e-11
-2.15213
1.34898
-4.12619e-11
-2.10061
1.39497
-4.74951e-11
-2.0381
1.44069
-5.62728e-11
-1.96455
1.48574
-5.87472e-11
-1.88008
1.52974
-6.41671e-11
-1.78505
1.57228
-6.36821e-11
-1.67995
1.61299
-6.68818e-11
-1.56543
1.65153
-6.51519e-11
-1.44223
1.68759
-6.74822e-11
-1.31117
1.72089
-6.58055e-11
-1.1731
1.75121
-6.77267e-11
-1.0289
1.77835
-6.61376e-11
-0.879408
1.80217
-6.69393e-11
-0.72549
1.82253
-6.47367e-11
-0.567975
1.83933
-6.45209e-11
-0.407677
1.85249
-6.40958e-11
-0.245398
1.86193
-6.26776e-11
-0.0819313
1.86763
-4.94614e-11
0.081932
1.86953
2.36657e-11
0.245398
1.86763
-9.62302e-11
0.407678
1.86193
-8.62044e-11
0.567976
1.85249
-2.59968e-10
1.83933
-3.18434e-10
-0.199584
0.404581
-2.4132e-11
-0.236022
0.405965
-2.48899e-11
-0.272534
0.407606
-1.82615e-11
-0.309132
0.409509
-1.55218e-11
-0.345826
0.411677
-1.52183e-11
-0.382629
0.414115
-1.56556e-11
-0.41955
0.416828
-1.61587e-11
-0.456599
0.419822
-1.65064e-11
-0.493787
0.423105
-1.69878e-11
-0.531122
0.426684
-1.73892e-11
-0.568615
0.430566
-1.79805e-11
-0.606274
0.434761
-1.84758e-11
-0.644107
0.439279
-1.9172e-11
-0.68212
0.44413
-1.97511e-11
-0.72032
0.449325
-2.05443e-11
-0.758713
0.454878
-2.12005e-11
-0.797302
0.4608
-2.20843e-11
-0.836091
0.467107
-2.28103e-11
-0.875081
0.473814
-2.37771e-11
-0.914272
0.480937
-2.4565e-11
-0.953661
0.488494
-2.56058e-11
-0.993243
0.496503
-2.64474e-11
-1.03301
0.504985
-2.75516e-11
-1.07296
0.51396
-2.84382e-11
-1.11306
0.523452
-2.95936e-11
-1.15332
0.533484
-3.05171e-11
-1.19369
0.544081
-3.17091e-11
-1.23416
0.555272
-3.26615e-11
-1.27469
0.567083
-3.38742e-11
-1.31525
0.579546
-3.48502e-11
-1.35578
0.59269
-3.60674e-11
-1.39623
0.60655
-3.70669e-11
-1.43654
0.621159
-3.82744e-11
-1.47662
0.636553
-3.9306e-11
-1.51639
0.652768
-4.04933e-11
-1.55576
0.669842
-4.15768e-11
-1.59459
0.687813
-4.27322e-11
-1.63276
0.706721
-4.38886e-11
-1.67011
0.726603
-4.4983e-11
-1.70647
0.747499
-4.62166e-11
-1.74164
0.769445
-4.71786e-11
-1.7754
0.792475
-4.84548e-11
-1.8075
0.816624
-4.91613e-11
-1.83766
0.841918
-5.04276e-11
-1.86557
0.86838
-5.07673e-11
-1.8909
0.896028
-5.20583e-11
-1.91327
0.924868
-5.20807e-11
-1.93227
0.954899
-5.36773e-11
-1.94747
0.986104
-5.37416e-11
-1.9584
1.01845
-5.62333e-11
-1.96458
1.0519
-5.6957e-11
-1.96549
1.08638
-6.09927e-11
-1.96062
1.1218
-6.28685e-11
-1.94945
1.15805
-6.87046e-11
-1.93149
1.19498
-7.16042e-11
-1.90626
1.23243
-7.86389e-11
-1.87336
1.2702
-8.16248e-11
-1.83245
1.30808
-8.85445e-11
-1.78329
1.34581
-9.03152e-11
-1.72575
1.38314
-9.57555e-11
-1.6598
1.41979
-9.53916e-11
-1.58555
1.45549
-9.86341e-11
-1.50322
1.48996
-9.60798e-11
-1.41315
1.52292
-9.72566e-11
-1.31576
1.55414
-9.32086e-11
-1.21155
1.58338
-9.29581e-11
-1.10109
1.61042
-8.83136e-11
-0.984974
1.63509
-8.71601e-11
-0.863845
1.65723
-8.2367e-11
-0.738355
1.67668
-8.02531e-11
-0.609165
1.69334
-7.53531e-11
-0.476945
1.70711
-7.28186e-11
-0.342364
1.71791
-7.01928e-11
-0.206095
1.72567
-6.59769e-11
-0.0688113
1.73034
-4.83771e-11
0.0688118
1.73191
2.9168e-11
0.206095
1.73034
-8.2094e-11
0.342365
1.72567
-6.76476e-11
0.476945
1.71791
-2.31991e-10
1.70711
-2.83141e-10
-0.189762
0.43914
-9.80122e-13
-0.224363
0.440565
3.43598e-12
-0.259012
0.442256
4.89794e-12
-0.293717
0.444214
1.06295e-11
-0.328485
0.446444
9.79563e-12
-0.363321
0.448951
8.03024e-12
-0.398231
0.451738
6.82209e-12
-0.433222
0.454813
6.17948e-12
-0.468298
0.458181
5.93889e-12
-0.503463
0.461849
5.79397e-12
-0.538722
0.465825
5.82803e-12
-0.574076
0.470116
5.82531e-12
-0.609529
0.474732
5.9556e-12
-0.64508
0.479682
6.00239e-12
-0.680731
0.484976
6.17429e-12
-0.716479
0.490626
6.24011e-12
-0.752322
0.496643
6.43763e-12
-0.788254
0.50304
6.51536e-12
-0.824271
0.509831
6.73774e-12
-0.860363
0.517029
6.82896e-12
-0.896519
0.52465
7.08049e-12
-0.932726
0.53271
7.188e-12
-0.968969
0.541227
7.47432e-12
-1.00523
0.550217
7.60006e-12
-1.04147
0.5597
7.92608e-12
-1.07769
0.569696
8.06923e-12
-1.11383
0.580225
8.43819e-12
-1.14987
0.59131
8.59449e-12
-1.18576
0.602972
9.00705e-12
-1.22145
0.615236
9.16579e-12
-1.25688
0.628125
9.61834e-12
-1.292
0.641663
9.75937e-12
-1.32671
0.655878
1.02406e-11
-1.36095
0.670793
1.03307e-11
-1.39462
0.686435
1.08191e-11
-1.42761
0.702831
1.08086e-11
-1.4598
0.720005
1.12699e-11
-1.49106
0.737982
1.10917e-11
-1.52125
0.756787
1.14835e-11
-1.55019
0.776441
1.10586e-11
-1.57771
0.796963
1.1339e-11
-1.6036
0.818372
1.05889e-11
-1.62766
0.84068
1.07269e-11
-1.64964
0.863896
9.57531e-12
-1.66928
0.888023
9.53966e-12
-1.68631
0.913058
7.8917e-12
-1.70043
0.93899
7.60902e-12
-1.71133
0.965798
5.2995e-12
-1.71868
0.993451
4.59463e-12
-1.72213
1.02191
1.35625e-12
-1.72134
1.05111
-5.19533e-14
-1.71595
1.08099
-4.52502e-12
-1.7056
1.11146
-6.90335e-12
-1.68997
1.14241
-1.27693e-11
-1.66873
1.17374
-1.61707e-11
-1.64159
1.20529
-2.3234e-11
-1.60831
1.23692
-2.73341e-11
-1.56869
1.26846
-3.49945e-11
-1.52261
1.29972
-3.9168e-11
-1.46999
1.33052
-4.66129e-11
-1.41085
1.36066
-5.01978e-11
-1.34529
1.38993
-5.67166e-11
-1.27346
1.41813
-5.92934e-11
-1.1956
1.44507
-6.45031e-11
-1.11203
1.47056
-6.60125e-11
-1.02309
1.49444
-6.98834e-11
-0.929189
1.51653
-7.05325e-11
-0.83078
1.53668
-7.31953e-11
-0.728336
1.55478
-7.31609e-11
-0.622356
1.5707
-7.4617e-11
-0.51336
1.58434
-7.40546e-11
-0.401879
1.59563
-7.49973e-11
-0.288453
1.60448
-7.60087e-11
-0.173632
1.61084
-7.49047e-11
-0.0579708
1.61468
-6.05978e-11
0.0579711
1.61597
8.23392e-12
0.173632
1.61468
-8.40828e-11
0.288453
1.61084
-7.14495e-11
0.401879