/*--------------------------------*- C++ -*----------------------------------*\
| =========                 |                                                 |
| \\      /  F ield         | OpenFOAM: The Open Source CFD Toolbox           |
|  \\    /   O peration     | Version:  2306                                  |
|   \\  /    A nd           | Website:  www.openfoam.com                      |
|    \\/     M anipulation  |                                                 |
\*---------------------------------------------------------------------------*/
FoamFile
{
    version     2.0;
    format      ascii;
    arch        "LSB;label=32;scalar=64";
    class       volVectorField;
    location    "75";
    object      U;
}
// * * * * * * * * * * * * * * * * * * * * * * * * * * * * * * * * * * * * * //

dimensions      [0 1 -1 0 0 0 0];

internalField   nonuniform List<vector> 
14400
(
(-0.00201808 4.20397e-05 -3.01697e-12)
(-0.00242498 4.19225e-05 -2.98185e-12)
(-0.00283354 4.17317e-05 -1.97913e-12)
(-0.00324401 4.14667e-05 -2.09213e-12)
(-0.00365663 4.11265e-05 -2.09135e-12)
(-0.00407165 4.07096e-05 -2.23819e-12)
(-0.00448932 4.02128e-05 -2.27917e-12)
(-0.00490991 3.96317e-05 -2.4509e-12)
(-0.00533369 3.89599e-05 -2.49718e-12)
(-0.00576093 3.81898e-05 -2.68257e-12)
(-0.00619192 3.73118e-05 -2.72837e-12)
(-0.00662693 3.63142e-05 -2.93101e-12)
(-0.00706628 3.51835e-05 -2.97891e-12)
(-0.00751025 3.39039e-05 -3.20349e-12)
(-0.00795915 3.24568e-05 -3.25505e-12)
(-0.00841329 3.08208e-05 -3.50561e-12)
(-0.00887299 2.89711e-05 -3.56135e-12)
(-0.00933858 2.6879e-05 -3.84195e-12)
(-0.00981038 2.45111e-05 -3.9017e-12)
(-0.0102887 2.18288e-05 -4.21705e-12)
(-0.0107739 1.87868e-05 -4.28031e-12)
(-0.0112663 1.53328e-05 -4.63623e-12)
(-0.0117662 1.1405e-05 -4.70236e-12)
(-0.0122739 6.9313e-06 -5.10621e-12)
(-0.0127898 1.82654e-06 -5.17493e-12)
(-0.0133141 -4.00979e-06 -5.63622e-12)
(-0.0138472 -1.06968e-05 -5.70882e-12)
(-0.0143891 -1.83763e-05 -6.24051e-12)
(-0.0149401 -2.72172e-05 -6.32273e-12)
(-0.0155005 -3.74219e-05 -6.94346e-12)
(-0.0160701 -4.92331e-05 -7.0502e-12)
(-0.016649 -6.29426e-05 -7.78619e-12)
(-0.017237 -7.89024e-05 -7.9449e-12)
(-0.017834 -9.75366e-05 -8.82578e-12)
(-0.0184394 -0.000119357 -9.06698e-12)
(-0.0190525 -0.00014498 -1.01051e-11)
(-0.0196726 -0.000175146 -1.0421e-11)
(-0.0202985 -0.00021074 -1.15727e-11)
(-0.0209289 -0.000252805 -1.18468e-11)
(-0.0215622 -0.000302555 -1.30065e-11)
(-0.0221965 -0.000361364 -1.30207e-11)
(-0.0228304 -0.000430715 -1.41838e-11)
(-0.0234625 -0.000512079 -1.39872e-11)
(-0.024093 -0.000606664 -1.56645e-11)
(-0.0247245 -0.000714955 -1.65384e-11)
(-0.0253643 -0.000835906 -1.9999e-11)
(-0.0260281 -0.000965605 -2.53159e-11)
(-0.0267453 -0.00109513 -3.15944e-11)
(-0.0275669 -0.00120721 -4.52043e-11)
(-0.0285774 -0.001271 -5.29115e-11)
(-0.0299103 -0.0012336 -7.37574e-11)
(-0.031765 -0.00100647 -7.98431e-11)
(-0.0344273 -0.000447432 -9.71947e-11)
(-0.038329 0.000663005 -1.09178e-10)
(-0.0441875 0.00273312 -1.39243e-10)
(-0.0527765 0.00661969 -1.90685e-10)
(-0.0643243 0.0122207 -2.54192e-10)
(-0.0792477 0.0158971 -2.86707e-10)
(-0.0933901 0.0119561 -6.34447e-10)
(-0.0982259 -0.016942 -2.43878e-10)
(-0.228407 0.0170897 -7.84798e-11)
(-0.177752 0.347822 1.1357e-10)
(-0.139844 0.459628 5.45259e-10)
(-0.116255 0.49271 5.59448e-10)
(-0.103083 0.500478 6.42993e-10)
(-0.0917409 0.501008 6.17279e-10)
(-0.0809022 0.499819 5.82521e-10)
(-0.0705373 0.498565 5.10302e-10)
(-0.0606109 0.497649 4.50858e-10)
(-0.0510831 0.497076 3.89104e-10)
(-0.0419229 0.496759 3.52811e-10)
(-0.0330927 0.496608 3.14382e-10)
(-0.0245449 0.496556 3.04938e-10)
(-0.0162244 0.496557 2.75555e-10)
(-0.00807167 0.496578 2.86668e-10)
(-6.5739e-09 0.496591 2.43383e-10)
(0.00807165 0.496578 3.01786e-10)
(0.0162244 0.496557 -1.45388e-11)
(0.0245448 0.496556 8.86434e-10)
(0.0330926 0.496608 -2.00002e-10)
(-0.00552168 0.00217389 -2.81518e-12)
(-0.00663544 0.00218244 -3.05476e-12)
(-0.00775428 0.00219238 -2.09341e-12)
(-0.00887904 0.00220372 -2.19766e-12)
(-0.0100106 0.0022165 -2.25001e-12)
(-0.0111497 0.00223074 -2.36737e-12)
(-0.0122975 0.00224649 -2.46505e-12)
(-0.0134546 0.00226378 -2.60094e-12)
(-0.0146222 0.00228265 -2.70936e-12)
(-0.0158012 0.00230315 -2.85489e-12)
(-0.0169925 0.00232532 -2.96905e-12)
(-0.0181974 0.00234921 -3.12768e-12)
(-0.0194167 0.00237486 -3.25088e-12)
(-0.0206517 0.00240232 -3.42679e-12)
(-0.0219036 0.00243166 -3.56152e-12)
(-0.0231736 0.00246291 -3.75802e-12)
(-0.024463 0.00249614 -3.90584e-12)
(-0.0257732 0.0025314 -4.12599e-12)
(-0.0271056 0.00256873 -4.28808e-12)
(-0.0284617 0.0026082 -4.53524e-12)
(-0.0298431 0.00264985 -4.71276e-12)
(-0.0312515 0.00269372 -4.99093e-12)
(-0.0326887 0.00273986 -5.18542e-12)
(-0.0341566 0.00278829 -5.4995e-12)
(-0.0356571 0.00283902 -5.71345e-12)
(-0.0371925 0.00289206 -6.06982e-12)
(-0.0387651 0.00294738 -6.30804e-12)
(-0.0403772 0.00300493 -6.71588e-12)
(-0.0420314 0.00306464 -6.9886e-12)
(-0.0437307 0.00312637 -7.46259e-12)
(-0.0454781 0.00318996 -7.79069e-12)
(-0.0472768 0.00325518 -8.35426e-12)
(-0.0491305 0.00332175 -8.77367e-12)
(-0.0510432 0.00338932 -9.45714e-12)
(-0.0530191 0.00345748 -1.00096e-11)
(-0.0550632 0.0035258 -1.08307e-11)
(-0.0571809 0.00359383 -1.15185e-11)
(-0.0593785 0.00366123 -1.24364e-11)
(-0.0616632 0.00372792 -1.31367e-11)
(-0.0640437 0.00379433 -1.40224e-11)
(-0.0665302 0.00386194 -1.44691e-11)
(-0.0691356 0.00393407 -1.5236e-11)
(-0.071876 0.00401727 -1.53916e-11)
(-0.0747725 0.00412352 -1.64371e-11)
(-0.077853 0.00427367 -1.75734e-11)
(-0.0811556 0.00450269 -2.02384e-11)
(-0.0847328 0.00486708 -2.60363e-11)
(-0.0886575 0.00545511 -3.20557e-11)
(-0.0930317 0.00639964 -4.71037e-11)
(-0.0979957 0.00789287 -5.66968e-11)
(-0.103738 0.010201 -8.05833e-11)
(-0.110506 0.0136751 -9.28986e-11)
(-0.11865 0.0187483 -1.18495e-10)
(-0.128625 0.0258866 -1.42128e-10)
(-0.140776 0.0353655 -1.83177e-10)
(-0.155254 0.0471357 -2.44915e-10)
(-0.172845 0.0621593 -3.38441e-10)
(-0.195595 0.0854614 -4.28865e-10)
(-0.225622 0.128494 -4.53461e-10)
(-0.265183 0.200233 -4.45193e-10)
(-0.310312 0.269441 -4.54791e-11)
(-0.316153 0.3374 2.35349e-10)
(-0.283749 0.382685 5.33272e-10)
(-0.247106 0.408606 6.40693e-10)
(-0.214548 0.42398 7.04349e-10)
(-0.185905 0.433775 6.88823e-10)
(-0.160557 0.440567 6.1333e-10)
(-0.137872 0.44564 5.479e-10)
(-0.117243 0.449618 4.58179e-10)
(-0.0981705 0.45281 4.0983e-10)
(-0.0802732 0.455382 3.50085e-10)
(-0.0632594 0.457431 3.26192e-10)
(-0.0468999 0.459017 2.95726e-10)
(-0.03101 0.460172 2.80498e-10)
(-0.0154409 0.460898 2.66752e-10)
(-4.93987e-08 0.461153 2.46491e-10)
(0.0154408 0.460898 2.54091e-10)
(0.0310099 0.460173 7.56637e-11)
(0.0468998 0.459017 5.42985e-10)
(0.0632593 0.457431 8.94761e-11)
(-0.00757314 0.00591328 -3.40205e-12)
(-0.00910068 0.00593781 -3.05413e-12)
(-0.0106353 0.00596668 -2.20365e-12)
(-0.0121783 0.00599995 -2.25386e-12)
(-0.0137308 0.0060377 -2.31955e-12)
(-0.0152942 0.00608003 -2.41525e-12)
(-0.0168698 0.00612708 -2.52817e-12)
(-0.0184589 0.00617897 -2.64436e-12)
(-0.0200628 0.00623585 -2.77036e-12)
(-0.0216831 0.0062979 -2.89531e-12)
(-0.0233212 0.00636529 -3.03068e-12)
(-0.0249787 0.00643822 -3.16729e-12)
(-0.0266572 0.00651691 -3.31553e-12)
(-0.0283584 0.0066016 -3.46737e-12)
(-0.0300841 0.00669254 -3.63112e-12)
(-0.0318362 0.00679001 -3.80114e-12)
(-0.0336165 0.00689431 -3.98242e-12)
(-0.0354274 0.00700577 -4.17347e-12)
(-0.0372708 0.00712473 -4.37417e-12)
(-0.0391492 0.0072516 -4.58946e-12)
(-0.0410652 0.00738678 -4.81174e-12)
(-0.0430213 0.00753071 -5.05509e-12)
(-0.0450204 0.0076839 -5.30171e-12)
(-0.0470656 0.00784687 -5.57784e-12)
(-0.0491602 0.00802019 -5.85277e-12)
(-0.0513078 0.00820449 -6.16771e-12)
(-0.0535122 0.00840046 -6.47737e-12)
(-0.0557777 0.00860885 -6.83965e-12)
(-0.0581088 0.00883047 -7.19556e-12)
(-0.0605105 0.00906626 -7.61859e-12)
(-0.0629884 0.00931723 -8.04218e-12)
(-0.0655486 0.00958454 -8.54739e-12)
(-0.0681977 0.00986954 -9.07466e-12)
(-0.0709433 0.0101738 -9.69119e-12)
(-0.0737939 0.0104991 -1.03671e-11)
(-0.0767588 0.0108479 -1.1117e-11)
(-0.0798489 0.011223 -1.19585e-11)
(-0.0830762 0.011628 -1.28177e-11)
(-0.0864548 0.012068 -1.37337e-11)
(-0.0900006 0.0125498 -1.4593e-11)
(-0.0937324 0.0130827 -1.533e-11)
(-0.0976715 0.0136804 -1.60656e-11)
(-0.101843 0.0143626 -1.64276e-11)
(-0.106277 0.0151588 -1.72059e-11)
(-0.111007 0.0161123 -1.78438e-11)
(-0.116074 0.0172878 -1.94856e-11)
(-0.121524 0.0187799 -2.2842e-11)
(-0.127412 0.0207253 -2.65483e-11)
(-0.133799 0.0233161 -3.60385e-11)
(-0.140752 0.0268131 -4.21394e-11)
(-0.148341 0.0315549 -5.80322e-11)
(-0.15664 0.0379573 -6.57214e-11)
(-0.165728 0.0464953 -8.29609e-11)
(-0.175671 0.057674 -9.36988e-11)
(-0.186476 0.0720492 -1.0938e-10)
(-0.198182 0.0904155 -1.26105e-10)
(-0.210823 0.113766 -1.39212e-10)
(-0.223803 0.142558 -1.59418e-10)
(-0.235111 0.175939 -1.35293e-10)
(-0.242225 0.211676 -1.14071e-10)
(-0.243338 0.246467 -1.84494e-11)
(-0.236041 0.279424 3.46085e-11)
(-0.221235 0.308268 1.2535e-10)
(-0.203051 0.332414 1.60824e-10)
(-0.184055 0.351769 1.91699e-10)
(-0.165233 0.366915 1.93384e-10)
(-0.146914 0.378706 1.81726e-10)
(-0.129166 0.387915 1.69242e-10)
(-0.111947 0.395144 1.45257e-10)
(-0.0951812 0.400835 1.33979e-10)
(-0.0787881 0.405305 1.15017e-10)
(-0.0626928 0.408775 1.09609e-10)
(-0.0468262 0.411394 9.66167e-11)
(-0.031127 0.413254 9.29519e-11)
(-0.0155511 0.414391 8.17319e-11)
(3.5737e-08 0.414782 7.71253e-11)
(0.0155512 0.414391 6.94868e-11)
(0.0311271 0.413254 2.40351e-11)
(0.0468263 0.411394 1.36137e-10)
(0.0626929 0.408775 3.78302e-11)
(-0.00842984 0.010318 -1.81146e-12)
(-0.01013 0.0103613 -2.16855e-12)
(-0.0118379 0.0104125 -1.49809e-12)
(-0.013555 0.0104717 -1.59722e-12)
(-0.0152827 0.010539 -1.66115e-12)
(-0.0170224 0.0106148 -1.73979e-12)
(-0.0187756 0.0106991 -1.8321e-12)
(-0.0205438 0.0107923 -1.91871e-12)
(-0.0223286 0.0108946 -2.02184e-12)
(-0.0241315 0.0110064 -2.11379e-12)
(-0.0259543 0.011128 -2.22537e-12)
(-0.0277987 0.0112599 -2.32527e-12)
(-0.0296665 0.0114023 -2.44767e-12)
(-0.0315597 0.0115559 -2.55799e-12)
(-0.0334802 0.0117212 -2.69294e-12)
(-0.0354302 0.0118986 -2.81559e-12)
(-0.0374119 0.0120889 -2.96439e-12)
(-0.0394276 0.0122928 -3.10113e-12)
(-0.0414799 0.0125109 -3.26491e-12)
(-0.0435715 0.0127441 -3.41761e-12)
(-0.0457052 0.0129934 -3.59758e-12)
(-0.0478839 0.0132596 -3.76829e-12)
(-0.0501111 0.0135441 -3.96587e-12)
(-0.0523902 0.0138478 -4.15688e-12)
(-0.054725 0.0141723 -4.37414e-12)
(-0.0571196 0.014519 -4.58818e-12)
(-0.0595784 0.0148895 -4.8287e-12)
(-0.0621063 0.0152858 -5.06966e-12)
(-0.0647085 0.01571 -5.34049e-12)
(-0.0673909 0.0161643 -5.61497e-12)
(-0.0701598 0.0166516 -5.93034e-12)
(-0.0730221 0.0171749 -6.25011e-12)
(-0.0759857 0.0177378 -6.63534e-12)
(-0.0790591 0.0183444 -7.01756e-12)
(-0.0822518 0.0189995 -7.50575e-12)
(-0.0855745 0.0197089 -7.96292e-12)
(-0.0890392 0.0204794 -8.56821e-12)
(-0.0926592 0.0213195 -9.07913e-12)
(-0.0964494 0.0222394 -9.73371e-12)
(-0.100427 0.023252 -1.02095e-11)
(-0.10461 0.0243737 -1.07071e-11)
(-0.109019 0.0256255 -1.10248e-11)
(-0.113678 0.0270353 -1.11414e-11)
(-0.118611 0.0286402 -1.13411e-11)
(-0.123844 0.0304904 -1.13596e-11)
(-0.129404 0.0326544 -1.19245e-11)
(-0.135314 0.0352258 -1.3339e-11)
(-0.141593 0.0383312 -1.51318e-11)
(-0.148249 0.04214 -2.02812e-11)
(-0.155274 0.0468727 -2.37943e-11)
(-0.162634 0.0528069 -3.32623e-11)
(-0.170258 0.0602773 -3.78634e-11)
(-0.178033 0.0696672 -4.80005e-11)
(-0.185797 0.0813957 -5.25361e-11)
(-0.19333 0.0958951 -5.79042e-11)
(-0.200306 0.113504 -6.09598e-11)
(-0.206235 0.134226 -5.63596e-11)
(-0.210464 0.157573 -5.49488e-11)
(-0.212241 0.182686 -3.83922e-11)
(-0.210911 0.208456 -3.15199e-11)
(-0.20625 0.233606 -4.61436e-12)
(-0.198454 0.257193 6.11547e-12)
(-0.188032 0.278488 2.98202e-11)
(-0.175665 0.29717 3.59185e-11)
(-0.162002 0.313141 4.66981e-11)
(-0.147575 0.326511 4.61342e-11)
(-0.132763 0.337555 4.64638e-11)
(-0.117806 0.346602 4.29198e-11)
(-0.102836 0.353969 3.92417e-11)
(-0.0879252 0.35993 3.61529e-11)
(-0.0731006 0.364702 3.22934e-11)
(-0.0583661 0.36845 3.0562e-11)
(-0.0437096 0.371292 2.66734e-11)
(-0.0291125 0.373304 2.51544e-11)
(-0.0145628 0.374519 2.01459e-11)
(8.16619e-08 0.374931 1.86233e-11)
(0.0145629 0.374519 1.2898e-11)
(0.0291126 0.373304 5.61367e-12)
(0.0437098 0.371292 1.904e-11)
(0.0583662 0.36845 1.08495e-11)
(-0.00864072 0.0149571 -3.07487e-12)
(-0.0103829 0.0150197 -2.56983e-12)
(-0.0121328 0.0150939 -1.90936e-12)
(-0.0138918 0.0151798 -1.93694e-12)
(-0.0156613 0.0152778 -1.99411e-12)
(-0.0174428 0.0153881 -2.06846e-12)
(-0.0192376 0.015511 -2.16211e-12)
(-0.0210473 0.015647 -2.25526e-12)
(-0.0228734 0.0157964 -2.36076e-12)
(-0.0247175 0.0159598 -2.46326e-12)
(-0.0265813 0.0161376 -2.57876e-12)
(-0.0284666 0.0163305 -2.6924e-12)
(-0.030375 0.0165391 -2.82046e-12)
(-0.0323086 0.0167641 -2.94743e-12)
(-0.0342692 0.0170064 -3.08996e-12)
(-0.036259 0.0172668 -3.2323e-12)
(-0.0382801 0.0175463 -3.39104e-12)
(-0.0403348 0.017846 -3.55097e-12)
(-0.0424256 0.0181669 -3.72776e-12)
(-0.0445551 0.0185104 -3.90784e-12)
(-0.046726 0.0188779 -4.10477e-12)
(-0.0489413 0.019271 -4.30792e-12)
(-0.0512042 0.0196913 -4.52751e-12)
(-0.0535179 0.0201409 -4.75712e-12)
(-0.0558861 0.0206219 -5.00263e-12)
(-0.0583126 0.0211365 -5.26269e-12)
(-0.0608018 0.0216876 -5.53872e-12)
(-0.063358 0.0222779 -5.83427e-12)
(-0.0659863 0.022911 -6.14802e-12)
(-0.0686919 0.0235904 -6.48613e-12)
(-0.0714807 0.0243206 -6.84967e-12)
(-0.074359 0.0251064 -7.2409e-12)
(-0.0773336 0.0259532 -7.67381e-12)
(-0.0804121 0.0268675 -8.13264e-12)
(-0.0836028 0.0278567 -8.66036e-12)
(-0.0869146 0.0289294 -9.19978e-12)
(-0.0903575 0.0300954 -9.83822e-12)
(-0.0939422 0.0313667 -1.04529e-11)
(-0.0976803 0.0327573 -1.11701e-11)
(-0.101584 0.0342838 -1.1815e-11)
(-0.105668 0.0359664 -1.24918e-11)
(-0.109946 0.0378298 -1.30944e-11)
(-0.114431 0.039904 -1.35772e-11)
(-0.11914 0.0422265 -1.4139e-11)
(-0.124084 0.0448444 -1.45137e-11)
(-0.129273 0.0478171 -1.52616e-11)
(-0.134714 0.0512198 -1.62442e-11)
(-0.140401 0.055148 -1.76109e-11)
(-0.146317 0.059721 -2.03992e-11)
(-0.152424 0.0650864 -2.26098e-11)
(-0.158652 0.0714208 -2.7552e-11)
(-0.164899 0.0789278 -3.00741e-11)
(-0.171011 0.0878307 -3.51459e-11)
(-0.176783 0.098358 -3.66746e-11)
(-0.181945 0.110719 -3.81683e-11)
(-0.186159 0.125051 -3.73733e-11)
(-0.189042 0.141326 -3.28584e-11)
(-0.190221 0.159256 -2.91352e-11)
(-0.189407 0.178282 -1.92321e-11)
(-0.186449 0.197686 -1.35303e-11)
(-0.181375 0.216749 -2.23745e-12)
(-0.174351 0.234894 2.91216e-12)
(-0.165633 0.251696 1.1487e-11)
(-0.155522 0.266884 1.41977e-11)
(-0.144323 0.280321 1.84013e-11)
(-0.132327 0.291996 1.86139e-11)
(-0.119777 0.301993 1.93877e-11)
(-0.106865 0.310453 1.85221e-11)
(-0.0937242 0.317536 1.79661e-11)
(-0.0804488 0.323395 1.68671e-11)
(-0.0670979 0.328167 1.57999e-11)
(-0.0537073 0.331958 1.4829e-11)
(-0.0402957 0.33485 1.32051e-11)
(-0.026873 0.336898 1.20075e-11)
(-0.0134515 0.338128 9.46918e-12)
(8.57482e-08 0.338541 8.1343e-12)
(0.0134516 0.338128 5.00625e-12)
(0.0268732 0.336898 2.77275e-12)
(0.0402959 0.33485 4.79976e-12)
(0.0537075 0.331958 4.43107e-12)
(-0.00857078 0.0195947 -9.41997e-13)
(-0.0102981 0.0196758 -1.22746e-12)
(-0.0120326 0.0197719 -8.42162e-13)
(-0.0137757 0.0198834 -9.26081e-13)
(-0.0155286 0.0200106 -9.76707e-13)
(-0.0172927 0.0201538 -1.03126e-12)
(-0.0190692 0.0203135 -1.09393e-12)
(-0.0208596 0.0204902 -1.15021e-12)
(-0.0226654 0.0206844 -1.21953e-12)
(-0.0244879 0.0208968 -1.27907e-12)
(-0.0263287 0.0211281 -1.35476e-12)
(-0.0281894 0.0213789 -1.41947e-12)
(-0.0300717 0.0216503 -1.50296e-12)
(-0.0319772 0.021943 -1.57413e-12)
(-0.0339077 0.0222582 -1.66649e-12)
(-0.0358652 0.022597 -1.74515e-12)
(-0.0378514 0.0229606 -1.84729e-12)
(-0.0398686 0.0233504 -1.93446e-12)
(-0.0419188 0.0237679 -2.04726e-12)
(-0.0440044 0.0242149 -2.14393e-12)
(-0.0461277 0.024693 -2.26814e-12)
(-0.0482913 0.0252044 -2.37519e-12)
(-0.0504978 0.0257512 -2.51152e-12)
(-0.0527502 0.026336 -2.62957e-12)
(-0.0550514 0.0269616 -2.77874e-12)
(-0.0574046 0.0276308 -2.9081e-12)
(-0.0598134 0.0283473 -3.07113e-12)
(-0.0622814 0.0291146 -3.21188e-12)
(-0.0648124 0.0299371 -3.39068e-12)
(-0.0674106 0.0308195 -3.543e-12)
(-0.0700805 0.0317671 -3.74167e-12)
(-0.0728268 0.032786 -3.90665e-12)
(-0.0756545 0.0338829 -4.13291e-12)
(-0.078569 0.0350656 -4.31305e-12)
(-0.081576 0.0363428 -4.57758e-12)
(-0.0846813 0.0377245 -4.77432e-12)
(-0.0878914 0.0392223 -5.08239e-12)
(-0.0912125 0.0408494 -5.28729e-12)
(-0.0946514 0.0426209 -5.6173e-12)
(-0.0982146 0.0445545 -5.79855e-12)
(-0.101909 0.0466707 -6.07733e-12)
(-0.105739 0.0489935 -6.17916e-12)
(-0.109711 0.051551 -6.30126e-12)
(-0.113828 0.0543762 -6.28516e-12)
(-0.118091 0.0575083 -6.24316e-12)
(-0.122496 0.0609937 -6.16548e-12)
(-0.127034 0.0648876 -6.25215e-12)
(-0.131687 0.0692553 -6.28841e-12)
(-0.136426 0.0741737 -7.07332e-12)
(-0.141206 0.0797317 -7.37564e-12)
(-0.145961 0.0860293 -9.13172e-12)
(-0.150597 0.0931748 -9.5721e-12)
(-0.154992 0.101278 -1.15143e-11)
(-0.158987 0.110439 -1.15872e-11)
(-0.162386 0.120733 -1.20048e-11)
(-0.164959 0.132185 -1.10972e-11)
(-0.166459 0.144743 -8.71217e-12)
(-0.166653 0.158246 -6.64359e-12)
(-0.165365 0.172425 -1.85868e-12)
(-0.162502 0.186923 8.0575e-13)
(-0.158075 0.201343 6.13673e-12)
(-0.152172 0.215316 8.4005e-12)
(-0.144944 0.228534 1.24365e-11)
(-0.136572 0.240769 1.36216e-11)
(-0.12725 0.251877 1.57524e-11)
(-0.117168 0.26179 1.59109e-11)
(-0.106499 0.270506 1.65801e-11)
(-0.0953873 0.278066 1.62097e-11)
(-0.08395 0.284535 1.61396e-11)
(-0.0722766 0.289987 1.56374e-11)
(-0.0604339 0.294493 1.52086e-11)
(-0.0484705 0.298112 1.46778e-11)
(-0.0364215 0.300892 1.38372e-11)
(-0.024314 0.302865 1.31329e-11)
(-0.0121764 0.304049 1.16871e-11)
(7.02481e-08 0.304445 1.07436e-11)
(0.0121766 0.304049 9.74374e-12)
(0.0243142 0.302865 3.10733e-12)
(0.0364216 0.300892 2.12935e-11)
(0.0484707 0.298112 -2.71718e-13)
(-0.00838275 0.0241522 -1.81178e-12)
(-0.0100712 0.0242501 -1.2895e-12)
(-0.0117661 0.0243664 -1.01623e-12)
(-0.0134687 0.0245012 -1.0283e-12)
(-0.0151801 0.0246551 -1.07352e-12)
(-0.0169015 0.0248284 -1.12284e-12)
(-0.018634 0.0250216 -1.18367e-12)
(-0.020379 0.0252354 -1.24319e-12)
(-0.0221376 0.0254704 -1.30935e-12)
(-0.0239112 0.0257273 -1.37409e-12)
(-0.0257011 0.026007 -1.44609e-12)
(-0.0275086 0.0263103 -1.5171e-12)
(-0.0293352 0.0266383 -1.59667e-12)
(-0.0311823 0.026992 -1.67511e-12)
(-0.0330514 0.0273727 -1.76353e-12)
(-0.0349441 0.0277817 -1.85061e-12)
(-0.036862 0.0282205 -1.94915e-12)
(-0.0388068 0.0286906 -2.0462e-12)
(-0.0407802 0.0291938 -2.15615e-12)
(-0.0427841 0.0297321 -2.26453e-12)
(-0.0448205 0.0303076 -2.38715e-12)
(-0.0468912 0.0309225 -2.5082e-12)
(-0.0489983 0.0315795 -2.64472e-12)
(-0.0511441 0.0322814 -2.77964e-12)
(-0.0533308 0.0330314 -2.93127e-12)
(-0.0555608 0.0338327 -3.08105e-12)
(-0.0578364 0.0346894 -3.24906e-12)
(-0.0601603 0.0356055 -3.41444e-12)
(-0.062535 0.0365858 -3.60041e-12)
(-0.0649634 0.0376355 -3.78198e-12)
(-0.0674482 0.0387602 -3.98815e-12)
(-0.0699923 0.0399666 -4.18658e-12)
(-0.0725985 0.0412617 -4.41642e-12)
(-0.0752699 0.0426537 -4.63277e-12)
(-0.0780092 0.0441514 -4.89056e-12)
(-0.0808192 0.0457651 -5.12511e-12)
(-0.0837024 0.0475061 -5.41209e-12)
(-0.0866612 0.0493872 -5.66031e-12)
(-0.0896973 0.0514226 -5.96468e-12)
(-0.0928118 0.0536288 -6.21008e-12)
(-0.0960051 0.0560238 -6.49419e-12)
(-0.0992761 0.0586284 -6.70483e-12)
(-0.102622 0.0614657 -6.90844e-12)
(-0.106038 0.0645619 -7.05006e-12)
(-0.109517 0.0679466 -7.13709e-12)
(-0.113045 0.071653 -7.20448e-12)
(-0.116607 0.0757183 -7.24097e-12)
(-0.120178 0.080184 -7.27517e-12)
(-0.123726 0.0850954 -7.43351e-12)
(-0.127207 0.0905019 -7.47879e-12)
(-0.130564 0.0964548 -7.83522e-12)
(-0.133725 0.103005 -7.83395e-12)
(-0.1366 0.1102 -8.08514e-12)
(-0.139081 0.118074 -7.81997e-12)
(-0.14104 0.126645 -7.31407e-12)
(-0.14234 0.135898 -6.50863e-12)
(-0.142834 0.145779 -4.74992e-12)
(-0.142388 0.156182 -3.31086e-12)
(-0.140892 0.166953 -4.79556e-13)
(-0.138278 0.177902 1.35549e-12)
(-0.13453 0.188815 4.48183e-12)
(-0.129678 0.19948 6.22678e-12)
(-0.123795 0.209706 8.81817e-12)
(-0.116983 0.219333 1.01179e-11)
(-0.109359 0.228244 1.17945e-11)
(-0.101048 0.236363 1.25355e-11)
(-0.0921684 0.24365 1.34372e-11)
(-0.0828276 0.250097 1.38134e-11)
(-0.0731198 0.255713 1.41027e-11)
(-0.0631233 0.260519 1.41949e-11)
(-0.0529027 0.264542 1.40748e-11)
(-0.0425104 0.267804 1.39459e-11)
(-0.0319893 0.270326 1.34571e-11)
(-0.0213767 0.272122 1.29939e-11)
(-0.0107106 0.2732 1.21393e-11)
(5.18472e-08 0.27356 1.1381e-11)
(0.0107107 0.2732 1.00639e-11)
(0.0213768 0.272122 8.10299e-12)
(0.0319894 0.270326 1.16743e-11)
(0.0425105 0.267804 1.2491e-11)
(-0.00813562 0.0285855 4.50549e-13)
(-0.00977304 0.0286984 1.44334e-13)
(-0.0114161 0.0288324 1.14157e-13)
(-0.0130658 0.0289878 4.7191e-14)
(-0.0147231 0.0291651 1.14153e-14)
(-0.0163891 0.0293648 -1.40243e-14)
(-0.0180646 0.0295874 -4.05726e-14)
(-0.0197509 0.0298336 -5.96293e-14)
(-0.0214488 0.0301041 -8.68884e-14)
(-0.0231595 0.0303998 -1.04977e-13)
(-0.0248841 0.0307215 -1.34253e-13)
(-0.0266237 0.0310702 -1.52418e-13)
(-0.0283794 0.0314471 -1.84308e-13)
(-0.0301524 0.0318533 -2.03023e-13)
(-0.0319439 0.0322901 -2.38127e-13)
(-0.0337551 0.0327589 -2.57754e-13)
(-0.0355873 0.0332615 -2.96605e-13)
(-0.0374417 0.0337994 -3.17383e-13)
(-0.0393196 0.0343747 -3.60365e-13)
(-0.0412225 0.0349892 -3.82323e-13)
(-0.0431516 0.0356454 -4.29537e-13)
(-0.0451083 0.0363457 -4.52309e-13)
(-0.0470942 0.0370928 -5.03492e-13)
(-0.0491105 0.0378896 -5.26167e-13)
(-0.0511588 0.0387394 -5.80557e-13)
(-0.0532405 0.0396459 -6.01455e-13)
(-0.055357 0.0406127 -6.57703e-13)
(-0.0575098 0.0416444 -6.74257e-13)
(-0.0597003 0.0427455 -7.30454e-13)
(-0.0619297 0.0439212 -7.39109e-13)
(-0.0641994 0.0451772 -7.92787e-13)
(-0.0665105 0.0465199 -7.89063e-13)
(-0.0688638 0.047956 -8.37392e-13)
(-0.0712602 0.0494933 -8.16093e-13)
(-0.0737 0.05114 -8.55713e-13)
(-0.0761833 0.0529054 -8.10702e-13)
(-0.0787097 0.0547996 -8.36106e-13)
(-0.0812781 0.0568339 -7.58835e-13)
(-0.0838866 0.0590205 -7.57924e-13)
(-0.0865325 0.0613729 -6.34258e-13)
(-0.0892118 0.063906 -5.82024e-13)
(-0.0919189 0.0666358 -3.89457e-13)
(-0.0946465 0.0695799 -2.46676e-13)
(-0.0973851 0.0727575 4.25097e-14)
(-0.100122 0.076189 3.12564e-13)
(-0.102842 0.0798964 7.1703e-13)
(-0.105525 0.0839029 1.1341e-12)
(-0.108145 0.0882326 1.6609e-12)
(-0.110673 0.0929104 2.16687e-12)
(-0.113071 0.0979606 2.78927e-12)
(-0.115294 0.103406 3.35891e-12)
(-0.117287 0.109266 4.06156e-12)
(-0.118988 0.115556 4.76059e-12)
(-0.120324 0.122279 5.55794e-12)
(-0.121217 0.129428 6.5401e-12)
(-0.121581 0.136978 7.45932e-12)
(-0.121334 0.144882 8.85265e-12)
(-0.120397 0.153071 9.87851e-12)
(-0.118708 0.16145 1.1605e-11)
(-0.116223 0.169908 1.26376e-11)
(-0.112925 0.178321 1.44209e-11)
(-0.108824 0.186564 1.53092e-11)
(-0.103952 0.194517 1.68401e-11)
(-0.0983629 0.202077 1.74747e-11)
(-0.0921238 0.209159 1.85815e-11)
(-0.0853093 0.215698 1.89495e-11)
(-0.0779959 0.221651 1.96191e-11)
(-0.0702579 0.226989 1.97824e-11)
(-0.0621643 0.231699 2.00915e-11)
(-0.0537774 0.235776 2.01265e-11)
(-0.0451523 0.239221 2.01953e-11)
(-0.0363377 0.242035 2.01662e-11)
(-0.0273769 0.244223 2.0047e-11)
(-0.01831 0.245786 1.99112e-11)
(-0.00917783 0.246725 1.9554e-11)
(3.40308e-08 0.247039 1.9068e-11)
(0.0091779 0.246725 1.99021e-11)
(0.01831 0.245786 8.68922e-12)
(0.027377 0.244223 4.1803e-11)
(0.0363378 0.242035 6.08339e-12)
(-0.00785 0.0328723 -4.13162e-13)
(-0.00942858 0.0329978 1.92433e-14)
(-0.0110119 0.0331468 -9.40282e-14)
(-0.0126007 0.0333197 -8.99936e-14)
(-0.0141958 0.0335168 -1.18145e-13)
(-0.015798 0.0337387 -1.38728e-13)
(-0.0174081 0.0339861 -1.6501e-13)
(-0.0190271 0.0342595 -1.88298e-13)
(-0.0206556 0.0345598 -2.13482e-13)
(-0.0222945 0.0348878 -2.36963e-13)
(-0.0239448 0.0352444 -2.62683e-13)
(-0.0256072 0.0356307 -2.87018e-13)
(-0.0272825 0.0360478 -3.14978e-13)
(-0.0289718 0.036497 -3.41721e-13)
(-0.0306757 0.0369796 -3.73641e-13)
(-0.0323953 0.037497 -4.03164e-13)
(-0.0341313 0.0380509 -4.39338e-13)
(-0.0358847 0.0386432 -4.7187e-13)
(-0.0376563 0.0392755 -5.12744e-13)
(-0.0394469 0.0399502 -5.48437e-13)
(-0.0412574 0.0406694 -5.94253e-13)
(-0.0430887 0.0414355 -6.32977e-13)
(-0.0449414 0.0422514 -6.83621e-13)
(-0.0468164 0.0431198 -7.24777e-13)
(-0.0487142 0.0440439 -7.79597e-13)
(-0.0506357 0.0450273 -8.2192e-13)
(-0.0525812 0.0460735 -8.79553e-13)
(-0.0545513 0.0471868 -9.20932e-13)
(-0.0565461 0.0483714 -9.79127e-13)
(-0.058566 0.0496323 -1.01643e-12)
(-0.0606107 0.0509746 -1.07184e-12)
(-0.06268 0.0524039 -1.10082e-12)
(-0.0647733 0.0539265 -1.1488e-12)
(-0.0668896 0.055549 -1.164e-12)
(-0.0690275 0.0572785 -1.19829e-12)
(-0.0711852 0.059123 -1.19292e-12)
(-0.0733601 0.0610908 -1.20472e-12)
(-0.0755489 0.0631909 -1.16995e-12)
(-0.0777475 0.0654332 -1.14598e-12)
(-0.0799508 0.067828 -1.06958e-12)
(-0.0821523 0.0703864 -9.89527e-13)
(-0.0843442 0.07312 -8.56383e-13)
(-0.0865171 0.0760413 -6.92906e-13)
(-0.0886594 0.0791629 -4.72926e-13)
(-0.0907575 0.0824981 -1.71266e-13)
(-0.092795 0.08606 1.52776e-13)
(-0.0947528 0.089862 5.95198e-13)
(-0.0966082 0.0939165 1.035e-12)
(-0.0983348 0.0982354 1.64711e-12)
(-0.0999023 0.102829 2.20513e-12)
(-0.101276 0.107703 2.97562e-12)
(-0.102417 0.112864 3.62224e-12)
(-0.10328 0.118308 4.66044e-12)
(-0.103821 0.124029 5.39553e-12)
(-0.103987 0.13001 6.52048e-12)
(-0.103729 0.136225 7.34123e-12)
(-0.102998 0.142637 8.65129e-12)
(-0.101749 0.149197 9.51205e-12)
(-0.0999455 0.155842 1.09181e-11)
(-0.097563 0.162505 1.17597e-11)
(-0.0945897 0.169109 1.31274e-11)
(-0.0910285 0.175577 1.38853e-11)
(-0.0868962 0.181833 1.50768e-11)
(-0.0822215 0.18781 1.57014e-11)
(-0.0770427 0.193447 1.66245e-11)
(-0.0714046 0.198695 1.70966e-11)
(-0.0653555 0.203513 1.77189e-11)
(-0.058945 0.207873 1.80466e-11)
(-0.0522217 0.211752 1.83883e-11)
(-0.0452322 0.215136 1.85979e-11)
(-0.0380205 0.218013 1.87202e-11)
(-0.0306279 0.220377 1.88442e-11)
(-0.0230931 0.222222 1.87864e-11)
(-0.0154535 0.223544 1.87505e-11)
(-0.00774795 0.224339 1.85496e-11)
(2.33038e-08 0.224605 1.81894e-11)
(0.007748 0.224339 1.84423e-11)
(0.0154536 0.223544 1.11486e-11)
(0.0230931 0.222222 3.20307e-11)
(0.030628 0.220377 1.51109e-11)
(-0.00753529 0.0369942 1.50686e-12)
(-0.00904916 0.0371301 1.23178e-12)
(-0.0105667 0.0372913 8.67619e-13)
(-0.0120887 0.0374782 8.30608e-13)
(-0.0136155 0.0376913 8.13022e-13)
(-0.015148 0.0379311 8.14261e-13)
(-0.0166867 0.0381983 8.19165e-13)
(-0.0182321 0.0384935 8.3276e-13)
(-0.0197851 0.0388174 8.42066e-13)
(-0.021346 0.039171 8.59403e-13)
(-0.0229156 0.0395552 8.69855e-13)
(-0.0244944 0.0399709 8.90236e-13)
(-0.0260831 0.0404194 9.01734e-13)
(-0.0276821 0.0409017 9.25204e-13)
(-0.0292921 0.0414194 9.37459e-13)
(-0.0309136 0.0419738 9.64054e-13)
(-0.0325471 0.0425665 9.76797e-13)
(-0.034193 0.0431992 1.00666e-12)
(-0.0358519 0.0438738 1.01979e-12)
(-0.0375241 0.0445922 1.05334e-12)
(-0.03921 0.0453566 1.06712e-12)
(-0.0409099 0.0461694 1.10519e-12)
(-0.042624 0.0470331 1.12034e-12)
(-0.0443525 0.0479503 1.16434e-12)
(-0.0460954 0.0489241 1.18226e-12)
(-0.0478526 0.0499575 1.23432e-12)
(-0.0496239 0.051054 1.25722e-12)
(-0.051409 0.0522172 1.32035e-12)
(-0.0532072 0.053451 1.35146e-12)
(-0.0550179 0.0547596 1.42964e-12)
(-0.0568399 0.0561475 1.47337e-12)
(-0.0586719 0.0576197 1.57163e-12)
(-0.0605123 0.0591811 1.63377e-12)
(-0.0623588 0.0608374 1.75813e-12)
(-0.0642089 0.0625943 1.846e-12)
(-0.0660595 0.0644582 2.00333e-12)
(-0.0679068 0.0664354 2.12618e-12)
(-0.0697463 0.068533 2.3242e-12)
(-0.0715728 0.0707581 2.49385e-12)
(-0.0733798 0.0731182 2.74128e-12)
(-0.0751602 0.075621 2.9733e-12)
(-0.0769054 0.0782745 3.28015e-12)
(-0.0786053 0.0810864 3.59456e-12)
(-0.0802487 0.0840648 3.97233e-12)
(-0.0818223 0.0872171 4.39364e-12)
(-0.0833113 0.0905505 4.85218e-12)
(-0.0846986 0.0940715 5.40046e-12)
(-0.0859651 0.0977853 5.94352e-12)
(-0.0870895 0.101696 6.632e-12)
(-0.0880481 0.105805 7.25402e-12)
(-0.0888149 0.110113 8.08074e-12)
(-0.089362 0.114615 8.76274e-12)
(-0.0896595 0.119304 9.71625e-12)
(-0.0896763 0.124168 1.04305e-11)
(-0.0893808 0.12919 1.14697e-11)
(-0.088742 0.134346 1.218e-11)
(-0.0877306 0.139607 1.32644e-11)
(-0.0863212 0.144937 1.39332e-11)
(-0.084493 0.150295 1.50012e-11)
(-0.0822321 0.155633 1.55923e-11)
(-0.0795318 0.160904 1.65752e-11)
(-0.076394 0.166056 1.70615e-11)
(-0.0728281 0.17104 1.78985e-11)
(-0.0688512 0.175811 1.82673e-11)
(-0.0644864 0.180324 1.89186e-11)
(-0.0597616 0.184544 1.91725e-11)
(-0.0547082 0.188437 1.96234e-11)
(-0.0493595 0.191978 1.9777e-11)
(-0.0437498 0.195144 2.00411e-11)
(-0.0379137 0.197919 2.01179e-11)
(-0.031885 0.200288 2.02379e-11)
(-0.0256972 0.202241 2.02643e-11)
(-0.0193829 0.20377 2.0243e-11)
(-0.0129744 0.204867 2.01534e-11)
(-0.0065056 0.205528 1.99667e-11)
(1.5333e-08 0.205749 1.95559e-11)
(0.00650563 0.205528 2.04962e-11)
(0.0129744 0.204867 9.74872e-12)
(0.0193829 0.20377 4.12949e-11)
(0.0256973 0.202241 1.08945e-11)
(-0.00719817 0.0409379 7.48436e-13)
(-0.00864283 0.0410816 1.04264e-12)
(-0.0100902 0.0412521 6.39965e-13)
(-0.0115408 0.0414497 6.6083e-13)
(-0.012995 0.041675 6.51214e-13)
(-0.0144533 0.0419283 6.57575e-13)
(-0.015916 0.0422104 6.64623e-13)
(-0.0173837 0.0425218 6.7503e-13)
(-0.0188566 0.0428634 6.8646e-13)
(-0.0203353 0.0432358 6.98082e-13)
(-0.02182 0.0436401 7.1046e-13)
(-0.0233111 0.0440773 7.23387e-13)
(-0.0248089 0.0445483 7.36509e-13)
(-0.0263138 0.0450543 7.50992e-13)
(-0.0278261 0.0455967 7.6461e-13)
(-0.0293458 0.0461767 7.80676e-13)
(-0.0308733 0.0467959 7.9454e-13)
(-0.0324087 0.0474558 8.1229e-13)
(-0.033952 0.0481582 8.26358e-13)
(-0.0355033 0.048905 8.46189e-13)
(-0.0370625 0.0496979 8.60793e-13)
(-0.0386296 0.0505393 8.8354e-13)
(-0.0402042 0.0514313 8.99559e-13)
(-0.041786 0.0523764 9.26627e-13)
(-0.0433746 0.0533772 9.45623e-13)
(-0.0449694 0.0544364 9.79113e-13)
(-0.0465694 0.055557 1.00354e-12)
(-0.0481739 0.0567421 1.04639e-12)
(-0.0497816 0.0579949 1.07977e-12)
(-0.051391 0.0593191 1.13591e-12)
(-0.0530004 0.0607184 1.1831e-12)