/*--------------------------------*- C++ -*----------------------------------*\
| =========                 |                                                 |
| \\      /  F ield         | OpenFOAM: The Open Source CFD Toolbox           |
|  \\    /   O peration     | Version:  2306                                  |
|   \\  /    A nd           | Website:  www.openfoam.com                      |
|    \\/     M anipulation  |                                                 |
\*---------------------------------------------------------------------------*/
FoamFile
{
    version     2.0;
    format      ascii;
    arch        "LSB;label=32;scalar=64";
    class       volScalarField;
    location    "87.5";
    object      p;
}
// * * * * * * * * * * * * * * * * * * * * * * * * * * * * * * * * * * * * * //

dimensions      [1 -1 -2 0 0 0 0];

internalField   nonuniform List<scalar> 
14400
(
-0.00585031
-0.00587483
-0.0059039
-0.00593761
-0.00597606
-0.00601935
-0.00606763
-0.00612105
-0.00617979
-0.00624404
-0.00631402
-0.00638998
-0.00647219
-0.00656094
-0.00665657
-0.00675944
-0.00686994
-0.00698853
-0.00711568
-0.00725193
-0.00739787
-0.00755415
-0.0077215
-0.00790071
-0.00809268
-0.00829837
-0.00851889
-0.00875547
-0.00900948
-0.00928245
-0.00957612
-0.00989246
-0.0102337
-0.0106023
-0.0110013
-0.0114339
-0.0119041
-0.0124161
-0.0129753
-0.0135877
-0.0142602
-0.0150012
-0.0158203
-0.0167286
-0.0177393
-0.0188669
-0.0201282
-0.0215408
-0.0231233
-0.0248938
-0.0268672
-0.029053
-0.031461
-0.0341163
-0.0369448
-0.0390656
-0.0378902
-0.0311241
-0.0193224
-0.00723868
-0.00680702
-0.00586819
-0.0056725
-0.00556048
-0.00525139
-0.00489407
-0.00455453
-0.00424694
-0.00397551
-0.00374209
-0.00354692
-0.00338933
-0.00326837
-0.00318309
-0.00313268
-0.0031161
-0.0031327
-0.00318314
-0.00326844
-0.00338942
-0.00548447
-0.0055073
-0.00553435
-0.00556571
-0.00560146
-0.00564172
-0.00568661
-0.00573627
-0.00579088
-0.00585061
-0.00591566
-0.00598626
-0.00606267
-0.00614515
-0.00623401
-0.00632959
-0.00643225
-0.0065424
-0.0066605
-0.00678702
-0.00692252
-0.00706759
-0.0072229
-0.00738917
-0.00756722
-0.00775794
-0.00796232
-0.00818147
-0.00841663
-0.00866916
-0.00894062
-0.00923271
-0.00954736
-0.00988676
-0.0102533
-0.0106499
-0.0110794
-0.0115456
-0.0120522
-0.0126038
-0.0132053
-0.0138623
-0.0145808
-0.0153674
-0.0162291
-0.0171726
-0.0182045
-0.0193298
-0.0205509
-0.0218648
-0.0232627
-0.0247461
-0.0263155
-0.0276723
-0.0276233
-0.0246886
-0.0198131
-0.0157516
-0.0133468
-0.0121317
-0.0113579
-0.00948902
-0.00806618
-0.00699417
-0.00613868
-0.00545589
-0.00490934
-0.00446817
-0.00411052
-0.00382132
-0.00359004
-0.00340924
-0.00327369
-0.00317989
-0.00312557
-0.00310807
-0.00312559
-0.00317994
-0.00327376
-0.00340932
-0.00515099
-0.005172
-0.00519685
-0.00522562
-0.00525839
-0.00529527
-0.00533636
-0.0053818
-0.00543173
-0.00548631
-0.00554572
-0.00561016
-0.00567985
-0.00575503
-0.00583597
-0.00592295
-0.0060163
-0.00611637
-0.00622354
-0.00633825
-0.00646095
-0.00659216
-0.00673245
-0.00688242
-0.00704278
-0.00721427
-0.00739772
-0.00759407
-0.00780432
-0.00802961
-0.0082712
-0.00853049
-0.00880903
-0.00910857
-0.00943104
-0.0097786
-0.0101537
-0.010559
-0.0109974
-0.0114725
-0.0119877
-0.0125471
-0.013155
-0.0138158
-0.0145342
-0.0153141
-0.016159
-0.0170706
-0.0180476
-0.0190844
-0.0201719
-0.0213028
-0.0224298
-0.0232919
-0.0232949
-0.0219222
-0.0193569
-0.0162437
-0.0131555
-0.0106484
-0.00889573
-0.00749528
-0.00649649
-0.00578282
-0.0052357
-0.0047951
-0.00443088
-0.00412579
-0.00386943
-0.00365537
-0.00347947
-0.003339
-0.00323213
-0.00315784
-0.00311568
-0.00310259
-0.0031157
-0.00315788
-0.00323219
-0.00333908
-0.00478919
-0.00480792
-0.00483003
-0.00485559
-0.00488467
-0.00491735
-0.00495372
-0.00499389
-0.00503799
-0.00508614
-0.00513848
-0.00519518
-0.00525642
-0.00532239
-0.00539329
-0.00546937
-0.00555087
-0.00563807
-0.00573127
-0.0058308
-0.00593702
-0.00605031
-0.0061711
-0.00629985
-0.00643708
-0.00658332
-0.00673918
-0.00690531
-0.00708243
-0.00727132
-0.00747282
-0.00768787
-0.00791747
-0.00816272
-0.00842484
-0.00870511
-0.00900495
-0.0093259
-0.00966961
-0.0100378
-0.0104325
-0.0108555
-0.0113089
-0.0117947
-0.0123148
-0.0128707
-0.0134634
-0.0140931
-0.0147583
-0.0154557
-0.0161804
-0.0169273
-0.0176834
-0.0183944
-0.018904
-0.0189226
-0.0181775
-0.0166778
-0.0147673
-0.0129118
-0.0113737
-0.0100512
-0.00891422
-0.00796124
-0.00717686
-0.00653499
-0.00600879
-0.00557635
-0.00522129
-0.0049316
-0.00469861
-0.00451609
-0.00437971
-0.00428716
-0.00423787
-0.00422401
-0.00423789
-0.0042872
-0.00437977
-0.00451616
-0.00443991
-0.00445624
-0.00447547
-0.00449765
-0.00452283
-0.00455109
-0.00458249
-0.00461712
-0.00465507
-0.00469643
-0.00474132
-0.00478986
-0.00484217
-0.00489839
-0.00495869
-0.00502323
-0.00509219
-0.00516576
-0.00524416
-0.00532761
-0.00541635
-0.00551066
-0.0056108
-0.00571709
-0.00582985
-0.00594942
-0.00607617
-0.00621051
-0.00635284
-0.00650363
-0.00666333
-0.00683245
-0.00701151
-0.00720105
-0.00740165
-0.00761389
-0.00783837
-0.00807569
-0.00832644
-0.00859119
-0.00887049
-0.00916479
-0.00947448
-0.00979978
-0.0101407
-0.0104969
-0.0108679
-0.0112523
-0.0116484
-0.0120537
-0.012465
-0.0128793
-0.0132941
-0.0137024
-0.014077
-0.0143621
-0.0144823
-0.0143716
-0.0140147
-0.0134698
-0.0128315
-0.0121526
-0.0114698
-0.0108097
-0.0101962
-0.00964448
-0.00915932
-0.00873961
-0.00838186
-0.00808208
-0.00783668
-0.00764276
-0.00749834
-0.00740359
-0.00736046
-0.00735201
-0.00736048
-0.00740364
-0.00749841
-0.00764284
-0.00409549
-0.00410931
-0.00412554
-0.00414422
-0.00416538
-0.00418908
-0.00421537
-0.00424429
-0.00427592
-0.00431031
-0.00434755
-0.0043877
-0.00443086
-0.00447712
-0.00452657
-0.00457931
-0.00463547
-0.00469515
-0.00475848
-0.0048256
-0.00489663
-0.00497173
-0.00505104
-0.00513472
-0.00522293
-0.00531583
-0.0054136
-0.00551639
-0.00562439
-0.00573774
-0.00585662
-0.00598117
-0.00611152
-0.00624778
-0.00639005
-0.00653838
-0.00669277
-0.00685319
-0.00701952
-0.00719157
-0.00736906
-0.00755158
-0.00773859
-0.00792939
-0.0081231
-0.00831861
-0.0085146
-0.00870945
-0.00890128
-0.00908791
-0.00926693
-0.00943576
-0.00959175
-0.00973218
-0.00985549
-0.00996474
-0.010066
-0.010158
-0.0102258
-0.0102526
-0.0102332
-0.010171
-0.0100743
-0.00995203
-0.00981397
-0.00966981
-0.0095273
-0.00939222
-0.00926887
-0.00916048
-0.00906966
-0.00899848
-0.00894896
-0.00892463
-0.00892953
-0.00893963
-0.00892957
-0.0089247
-0.00894907
-0.00899862
-0.00376578
-0.00377715
-0.00379045
-0.00380572
-0.00382297
-0.00384224
-0.00386356
-0.00388695
-0.00391246
-0.00394011
-0.00396996
-0.00400203
-0.00403639
-0.00407307
-0.00411212
-0.00415359
-0.00419753
-0.004244
-0.00429304
-0.00434471
-0.00439906
-0.00445613
-0.00451597
-0.00457861
-0.0046441
-0.00471245
-0.00478368
-0.00485779
-0.00493477
-0.00501459
-0.00509718
-0.00518247
-0.00527034
-0.00536064
-0.00545315
-0.00554764
-0.0056438
-0.00574124
-0.00583952
-0.00593811
-0.00603636
-0.00613358
-0.00622892
-0.00632147
-0.00641019
-0.00649396
-0.00657158
-0.0066418
-0.00670335
-0.00675501
-0.00679563
-0.00682424
-0.00684005
-0.00684244
-0.0068312
-0.00680752
-0.006775
-0.00673945
-0.00670673
-0.00668059
-0.00666205
-0.00664984
-0.00664186
-0.00663605
-0.00663111
-0.00662655
-0.00662242
-0.00661914
-0.00661735
-0.00661788
-0.00662164
-0.00662954
-0.00664261
-0.00666344
-0.00669466
-0.00671303
-0.00669472
-0.00666355
-0.00664277
-0.00662974
-0.00345037
-0.00345939
-0.0034699
-0.00348192
-0.00349546
-0.00351053
-0.00352714
-0.00354531
-0.00356505
-0.00358636
-0.00360927
-0.00363378
-0.00365991
-0.00368766
-0.00371705
-0.00374807
-0.00378074
-0.00381505
-0.00385101
-0.00388858
-0.00392777
-0.00396855
-0.00401089
-0.00405473
-0.00410004
-0.00414673
-0.00419472
-0.0042439
-0.00429415
-0.00434532
-0.00439723
-0.00444966
-0.00450237
-0.00455507
-0.00460742
-0.00465906
-0.00470955
-0.0047584
-0.00480507
-0.00484896
-0.0048894
-0.00492569
-0.00495703
-0.00498263
-0.00500164
-0.00501321
-0.00501653
-0.00501083
-0.00499544
-0.00496989
-0.00493389
-0.00488747
-0.00483102
-0.00476533
-0.00469163
-0.00461168
-0.00452768
-0.00444221
-0.00435798
-0.00427763
-0.0042034
-0.00413686
-0.00407891
-0.00402981
-0.00398938
-0.00395719
-0.00393263
-0.00391507
-0.00390394
-0.00389877
-0.00389921
-0.00390499
-0.00391607
-0.00393366
-0.00395902
-0.00397366
-0.00395909
-0.0039338
-0.00391628
-0.00390525
-0.00315205
-0.00315889
-0.00316683
-0.00317586
-0.00318598
-0.00319719
-0.00320949
-0.00322288
-0.00323735
-0.00325289
-0.00326949
-0.00328715
-0.00330585
-0.00332557
-0.00334629
-0.00336798
-0.00339062
-0.00341416
-0.00343856
-0.00346377
-0.00348973
-0.00351636
-0.00354359
-0.00357132
-0.00359944
-0.00362783
-0.00365634
-0.00368482
-0.00371307
-0.00374088
-0.00376804
-0.00379426
-0.00381926
-0.00384272
-0.00386427
-0.00388351
-0.00390003
-0.00391334
-0.00392296
-0.00392833
-0.00392892
-0.00392412
-0.00391336
-0.00389604
-0.00387161
-0.00383952
-0.00379934
-0.0037507
-0.00369338
-0.00362733
-0.00355272
-0.00346998
-0.00337979
-0.00328317
-0.00318145
-0.00307627
-0.00296955
-0.00286331
-0.0027596
-0.00266028
-0.00256694
-0.00248082
-0.00240279
-0.00233337
-0.00227275
-0.00222091
-0.00217763
-0.00214259
-0.00211541
-0.00209571
-0.0020831
-0.00207723
-0.00207787
-0.00208565
-0.00210124
-0.00211096
-0.00210132
-0.00208581
-0.0020781
-0.00207752
-0.00287139
-0.00287627
-0.00288188
-0.00288821
-0.00289526
-0.00290301
-0.00291145
-0.00292057
-0.00293035
-0.00294077
-0.0029518
-0.00296341
-0.00297558
-0.00298826
-0.00300141
-0.003015
-0.00302895
-0.00304322
-0.00305773
-0.0030724
-0.00308716
-0.0031019
-0.00311651
-0.00313087
-0.00314486
-0.00315831
-0.00317107
-0.00318294
-0.00319374
-0.00320324
-0.00321119
-0.00321734
-0.0032214
-0.00322306
-0.00322199
-0.00321784
-0.00321024
-0.00319881
-0.00318312
-0.00316278
-0.00313737
-0.00310646
-0.00306968
-0.00302664
-0.00297703
-0.00292057
-0.00285708
-0.00278649
-0.00270882
-0.00262426
-0.00253319
-0.00243613
-0.00233384
-0.00222725
-0.00211751
-0.00200594
-0.00189395
-0.00178307
-0.00167479
-0.00157053
-0.00147155
-0.00137891
-0.00129343
-0.00121573
-0.00114616
-0.0010849
-0.00103198
-0.000987292
-0.000950638
-0.000921786
-0.00090047
-0.00088639
-0.000879314
-0.000879615
-0.000887639
-0.000893554
-0.000887722
-0.000879779
-0.000879551
-0.000886685
-0.00260922
-0.00261237
-0.00261593
-0.00261989
-0.00262425
-0.00262897
-0.00263405
-0.00263946
-0.00264517
-0.00265116
-0.00265738
-0.00266379
-0.00267037
-0.00267705
-0.00268379
-0.00269051
-0.00269717
-0.00270368
-0.00270997
-0.00271594
-0.0027215
-0.00272653
-0.00273093
-0.00273456
-0.00273729
-0.00273895
-0.00273939
-0.00273843
-0.00273587
-0.0027315
-0.00272511
-0.00271646
-0.0027053
-0.00269137
-0.00267438
-0.00265407
-0.00263013
-0.00260227
-0.00257019
-0.0025336
-0.00249222
-0.00244579
-0.00239407
-0.00233686
-0.00227402
-0.00220546
-0.00213117
-0.00205121
-0.00196577
-0.00187513
-0.0017797
-0.00168004
-0.0015768
-0.0014708
-0.00136295
-0.00125428
-0.00114587
-0.00103884
-0.000934309
-0.000833332
-0.000736885
-0.000645825
-0.000560866
-0.000482575
-0.000411373
-0.000347542
-0.000291242
-0.00024253
-0.000201383
-0.000167719
-0.000141412
-0.000122282
-0.00011018
-0.000105359
-0.000108036
-0.00011123
-0.000108114
-0.000105512
-0.000110401
-0.000122559
-0.00236569
-0.00236734
-0.00236914
-0.00237107
-0.00237312
-0.00237526
-0.00237748
-0.00237973
-0.002382
-0.00238424
-0.00238642
-0.00238848
-0.00239039
-0.00239209
-0.00239352
-0.00239461
-0.0023953
-0.00239551
-0.00239515
-0.00239413
-0.00239236
-0.00238973
-0.00238611
-0.0023814
-0.00237545
-0.00236813
-0.00235927
-0.00234873
-0.00233632
-0.00232188
-0.00230521
-0.00228611
-0.00226439
-0.00223983
-0.00221222
-0.00218134
-0.00214698
-0.00210894
-0.00206701
-0.00202099
-0.00197073
-0.00191607
-0.0018569
-0.00179313
-0.00172475
-0.00165176
-0.00157426
-0.00149239
-0.00140638
-0.00131656
-0.00122331
-0.00112714
-0.00102861
-0.00092838
-0.000827184
-0.000725806
-0.000625071
-0.000525822
-0.000428897
-0.000335102
-0.00024519
-0.000159843
-7.96585e-05
-5.13905e-06
6.33082e-05
0.00012537
0.000180821
0.000229515
0.00027137
0.000306361
0.000334511
0.000355891
0.000370573
0.000378351
0.000379067
0.000377669
0.000378999
0.000378218
0.000370379
0.00035565
-0.0021407
-0.00214109
-0.00214141
-0.00214164
-0.00214176
-0.00214175
-0.00214158
-0.00214122
-0.00214065
-0.00213981
-0.00213867
-0.00213719
-0.00213531
-0.00213299
-0.00213015
-0.00212674
-0.00212268
-0.00211791
-0.00211234
-0.00210589
-0.00209846
-0.00208995
-0.00208026
-0.00206928
-0.00205689
-0.00204295
-0.00202736
-0.00200995
-0.0019906
-0.00196916
-0.00194547
-0.00191938
-0.00189073
-0.00185937
-0.00182514
-0.00178788
-0.00174746
-0.00170372
-0.00165656
-0.00160585
-0.00155151
-0.00149347
-0.00143171
-0.00136621
-0.00129702
-0.00122421
-0.00114792
-0.00106834
-0.000985712
-0.00090033
-0.00081256
-0.000722825
-0.000631604
-0.000539429
-0.000446876
-0.000354555
-0.000263102
-0.00017316
-8.53693e-05
-3.48958e-07
8.1313e-05
0.000159073
0.000232441
0.000300988
0.000364345
0.000422208
0.000474338
0.000520548
0.000560706
0.000594728
0.000622568
0.000644229
0.000659721
0.000668869
0.000671541
0.000671261
0.000671484
0.000668757
0.000659558
0.000644026
-0.00193383
-0.00193318
-0.00193228
-0.00193112
-0.00192967
-0.00192791
-0.00192582
-0.00192336
-0.00192049
-0.00191719
-0.00191342
-0.00190912
-0.00190425
-0.00189877
-0.0018926
-0.0018857
-0.001878
-0.00186942
-0.00185991
-0.00184937
-0.00183772
-0.00182489
-0.00181077
-0.00179527
-0.0017783
-0.00175973
-0.00173948
-0.00171742
-0.00169345
-0.00166745
-0.00163929
-0.00160887
-0.00157608
-0.00154079
-0.0015029
-0.00146231
-0.00141892
-0.00137267
-0.00132346
-0.00127127
-0.00121604
-0.00115778
-0.0010965
-0.00103223
-0.000965073
-0.000895125
-0.000822539
-0.000747506
-0.00067026
-0.000591073
-0.000510264
-0.000428189
-0.000345244
-0.000261858
-0.00017849
-9.56184e-05
-1.37377e-05
6.66526e-05
0.000145057
0.00022099
0.000293991
0.000363623
0.000429487
0.000491221
0.000548507
0.000601068
0.000648673
0.000691131
0.000728293
0.000760046
0.000786312
0.000807052
0.000822241
0.000831725
0.000835392
0.00083577
0.000835348
0.000831639
0.000822115
0.000806896
-0.00174442
-0.00174295
-0.00174109
-0.00173882
-0.00173612
-0.00173299
-0.00172937
-0.00172526
-0.00172062
-0.00171541
-0.00170959
-0.00170314
-0.00169599
-0.00168811
-0.00167944
-0.00166993
-0.00165952
-0.00164816
-0.00163577
-0.00162229
-0.00160765
-0.00159178
-0.0015746
-0.00155602
-0.00153598
-0.00151437
-0.00149113
-0.00146616
-0.00143937
-0.00141068
-0.00138001
-0.00134726
-0.00131236
-0.00127524
-0.00123583
-0.00119406
-0.00114988
-0.00110326
-0.00105416
-0.00100258
-0.000948506
-0.000891978
-0.000833039
-0.000771757
-0.00070823
-0.000642581
-0.00057496
-0.000505552
-0.000434566
-0.000362247
-0.000288866
-0.000214724
-0.000140144
-6.54769e-05
8.91217e-06
8.2642e-05
0.000155323
0.000226562
0.000295969
0.000363162
0.000427772
0.000489449
0.000547867
0.000602726
0.000653753
0.000700708
0.000743382
0.000781594
0.000815198
0.000844074
0.000868132
0.000887313
0.000901573
0.000910781
0.000914838
0.000915577
0.000914806
0.000910717
0.000901481
0.000887199
-0.00157167
-0.00156955
-0.00156694
-0.00156382
-0.00156017
-0.00155598
-0.00155122
-0.00154586
-0.00153988
-0.00153324
-0.00152592
-0.00151786
-0.00150905
-0.00149943
-0.00148896
-0.00147759
-0.00146528
-0.00145198
-0.00143762
-0.00142215
-0.00140552
-0.00138766
-0.00136851
-0.00134801
-0.0013261
-0.00130271
-0.00127777
-0.00125122
-0.00122299
-0.00119303
-0.00116128
-0.00112767
-0.00109216
-0.00105471
-0.00101526
-0.000973797
-0.00093029
-0.00088473
-0.000837116
-0.000787462
-0.000735796
-0.000682164
-0.000626629
-0.000569272
-0.000510194
-0.000449521
-0.000387395
-0.000323985
-0.000259478
-0.000194087
-0.000128043
-6.15956e-05
4.98519e-06
7.14161e-05
0.000137401
0.000202634
0.000266805
0.000329601
0.00039071
0.000449827
0.000506658
0.000560919
0.000612342
0.000660681
0.000705706
0.000747212
0.000785015
0.000818955
0.000848895
0.000874722
0.000896344
0.000913699
0.000926734
0.000935337
0.000939425
0.000940339
0.000939405
0.000935296
0.000926675
0.000913627
-0.0014146
-0.00141201
-0.00140884
-0.00140509
-0.00140075
-0.00139579
-0.00139019
-0.00138394
-0.001377
-0.00136935
-0.00136096
-0.0013518
-0.00134183
-0.00133103
-0.00131934
-0.00130675
-0.00129319
-0.00127864
-0.00126304
-0.00124635
-0.00122853
-0.00120952
-0.00118928
-0.00116776
-0.00114491
-0.00112069
-0.00109504
-0.00106791
-0.00103928
-0.00100908
-0.000977293
-0.000943874
-0.000908795
-0.000872032
-0.000833568
-0.000793393
-0.000751504
-0.00070791
-0.000662629
-0.000615691
-0.000567138
-0.000517027
-0.000465426
-0.000412422
-0.000358115
-0.000302622
-0.000246077
-0.00018863
-0.000130446
-7.17081e-05
-1.26116e-05
4.6633e-05
0.000105803
0.000164667
0.000222982
0.000280503
0.000336977
0.000392154
0.000445782
0.000497617
0.00054742
0.00059496
0.000640019
0.000682392
0.000721889
0.000758336
0.000791576
0.00082147
0.000847897
0.000870753
0.000889954
0.000905438
0.000917153
0.000925004
0.000928923
0.000929898
0.000928912
0.000924981
0.000917119
0.000905398
-0.00127221
-0.00126927
-0.00126572
-0.00126154
-0.00125671
-0.00125122
-0.00124506
-0.0012382
-0.00123062
-0.00122231
-0.00121323
-0.00120336
-0.00119267
-0.00118113
-0.00116872
-0.0011554
-0.00114113
-0.00112589
-0.00110964
-0.00109234
-0.00107395
-0.00105445
-0.00103379
-0.00101194
-0.000988867
-0.000964529
-0.000938898
-0.000911942
-0.000883632
-0.000853943
-0.000822853
-0.000790344
-0.000756402
-0.000721018
-0.000684193
-0.000645929
-0.000606239
-0.000565145
-0.000522675
-0.000478868
-0.000433775
-0.000387455
-0.00033998
-0.000291435
-0.000241914
-0.000191526
-0.000140391
-8.86416e-05
-3.64231e-05
1.61091e-05
6.87882e-05
0.000121438
0.000173874
0.000225904
0.000277331
0.000327952
0.000377564
0.000425962
0.000472944
0.00051831
0.000561865
0.000603423
0.000642803
0.000679838
0.000714368
0.000746249
0.000775347
0.000801544
0.000824735
0.00084483
0.000861752
0.000875446
0.000885862
0.000892922
0.000896569
0.000897539
0.000896566
0.000892916
0.000885854
0.000875439
-0.00114343
-0.00114027
-0.00113646
-0.001132
-0.00112687
-0.00112106
-0.00111456
-0.00110734
-0.00109939
-0.00109069
-0.00108123
-0.00107098
-0.00105991
-0.00104801
-0.00103525
-0.00102161
-0.00100705
-0.000991565
-0.000975113
-0.000957672
-0.000939214
-0.000919713
-0.000899143
-0.000877479
-0.000854697
-0.000830774
-0.000805689
-0.000779423
-0.00075196
-0.000723286
-0.000693392
-0.000662271
-0.000629923
-0.00059635
-0.000561562
-0.000525573
-0.000488405
-0.000450085
-0.000410651
-0.000370145
-0.00032862
-0.000286137
-0.000242766
-0.000198586
-0.000153686
-0.000108164
-6.21264e-05
-1.5691e-05
3.10173e-05
7.78649e-05
0.000124711
0.000171406
0.000217797
0.000263725
0.000309025
0.000353534
0.000397082
0.000439505
0.000480634
0.000520309
0.000558369
0.000594661
0.000629037
0.00066136
0.000691496
0.000719326
0.000744737
0.00076763
0.000787914
0.000805513
0.000820361
0.000832406
0.000841606
0.000847896
0.000851229
0.000852156
0.000851232
0.000847903
0.000841617
0.000832423
-0.00102718
-0.0010239
-0.00101996
-0.00101535
-0.00101007
-0.0010041
-0.000997427
-0.000990047
-0.000981941
-0.000973094
-0.000963491
-0.000953115
-0.000941948
-0.000929973
-0.000917171
-0.000903523
-0.000889009
-0.00087361
-0.000857307
-0.000840081
-0.000821912
-0.000802782
-0.000782673
-0.00076157
-0.000739457
-0.00071632
-0.000692148
-0.000666931
-0.000640662
-0.000613338
-0.000584958
-0.000555524
-0.000525043
-0.000493527
-0.000460992
-0.000427458
-0.000392954
-0.00035751
-0.000321167
-0.00028397
-0.00024597
-0.000207227
-0.000167807
-0.000127783
-8.72373e-05
-4.62564e-05
-4.93586e-06
3.66226e-05
7.83105e-05
0.000120013
0.000161611
0.000202979
0.000243988
0.000284505
0.000324394
0.000363519
0.000401742
0.000438925
0.000474933
0.000509631
0.000542888
0.000574579
0.000604582
0.000632781
0.000659069
0.000683344
0.000705513
0.000725492
0.000743206
0.000758588
0.000771583
0.000782147
0.00079024
0.000795812
0.000798821
0.000799688
0.00079883
0.00079583
0.000790268
0.000782186
-0.000922421
-0.000919094
-0.000915111
-0.000910464
-0.000905146
-0.000899148
-0.000892462
-0.000885076
-0.000876981
-0.000868165
-0.000858615
-0.000848319
-0.000837265
-0.000825437
-0.000812824
-0.00079941
-0.000785183
-0.000770128
-0.000754232
-0.000737482
-0.000719866
-0.000701372
-0.000681989
-0.000661709
-0.000640522
-0.000618423
-0.000595407
-0.000571471
-0.000546617
-0.000520846
-0.000494165
-0.000466582
-0.00043811
-0.000408766
-0.00037857
-0.000347547
-0.000315727
-0.000283144
-0.000249837
-0.000215853
-0.00018124
-0.000146056
-0.000110361
-7.42221e-05
-3.7713e-05
-9.11695e-07
3.60983e-05
7.32281e-05
0.000110384
0.000147468
0.000184378
0.000221008
0.00025725
0.000292991
0.000328121
0.000362523
0.000396085
0.000428693
0.000460233
0.000490596
0.000519673
0.00054736
0.000573557
0.000598169
0.000621106
0.000642283
0.000661623
0.000679055
0.000694518
0.000707953
0.000719315
0.000728565
0.000735671
0.000740589
0.000743287
0.000744084
0.0007433
0.000740614
0.000735709
0.000728618
-0.000828143
-0.000824835
-0.000820881
-0.000816278
-0.000811018
-0.000805096
-0.000798505
-0.000791236
-0.000783283
-0.000774635
-0.000765286
-0.000755225
-0.000744442
-0.00073293
-0.000720677
-0.000707675
-0.000693915
-0.000679387
-0.000664083
-0.000647996
-0.000631118
-0.000613442
-0.000594964
-0.00057568
-0.000555587
-0.000534685
-0.000512974
-0.000490457
-0.000467139
-0.000443029
-0.000418136
-0.000392473
-0.000366058
-0.000338909
-0.000311049
-0.000282506
-0.000253311
-0.000223497
-0.000193104
-0.000162175
-0.000130758
-9.89036e-05
-6.66696e-05
-3.41162e-05
-1.30869e-06
3.16836e-05
6.47873e-05
9.7925e-05
0.000131016
0.000163976
0.000196717
0.000229151
0.000261184
0.000292725
0.000323677
0.000353947
0.000383438
0.000412056
0.000439708
0.000466303
0.000491749
0.000515962
0.000538858
0.000560358
0.000580387
0.000598875
0.000615757
0.000630976
0.000644477
0.000656215
0.000666148
0.000674245
0.000680478
0.000684811
0.000687218
0.000687944
0.000687235
0.000684844
0.000680527
0.000674311
-0.000743386
-0.000740145
-0.000736278
-0.000731782
-0.000726652
-0.000720884
-0.000714473
-0.000707413
-0.000699699
-0.000691325
-0.000682284
-0.000672571
-0.000662179
-0.000651102
-0.000639334
-0.00062687
-0.000613703
-0.00059983
-0.000585245
-0.000569944
-0.000553925
-0.000537186
-0.000519726
-0.000501544
-0.000482644
-0.000463027
-0.000442699
-0.000421666
-0.000399938
-0.000377525
-0.00035444
-0.0003307
-0.000306323
-0.00028133
-0.000255746
-0.000229598
-0.000202916
-0.000175734
-0.00014809
-0.000120025
-9.15819e-05
-6.28095e-05
-3.37588e-05
-4.48443e-06
2.49556e-05
5.45001e-05
8.40845e-05
0.000113642
0.000143102
0.000172392
0.000201438
0.000230164
0.000258491
0.000286341
0.000313634
0.00034029
0.00036623
0.000391374
0.000415645
0.000438966
0.000461263
0.000482464
0.000502499
0.000521304
0.000538814
0.000554973
0.000569727
0.000583026
0.000594826
0.000605087
0.000613777
0.000620867
0.000626335
0.00063015
0.000632293
0.000632949
0.000632311
0.000630188
0.000626391
0.000620943
-0.00066725
-0.000664112
-0.000660374
-0.000656033
-0.000651086
-0.00064553
-0.000639362
-0.000632577
-0.000625174
-0.000617147
-0.000608493
-0.000599208
-0.000589288
-0.000578731
-0.000567532
-0.00055569
-0.000543201
-0.000530064
-0.000516278
-0.000501841
-0.000486755
-0.00047102
-0.000454639
-0.000437614
-0.000419952
-0.000401658
-0.000382739
-0.000363205
-0.000343068
-0.00032234
-0.000301037
-0.000279175
-0.000256775
-0.000233858
-0.000210449
-0.000186575
-0.000162266
-0.000137553
-0.000112473
-8.70633e-05
-6.13642e-05
-3.54194e-05
-9.2753e-06
1.70193e-05
4.34128e-05
6.98511e-05
9.6278e-05
0.000122635
0.000148861
0.000174894
0.00020067
0.000226125
0.000251191
0.000275801
0.00029989
0.000323388
0.00034623
0.00036835
0.00038968
0.000410159
0.000429723
0.000448313
0.00046587
0.00048234
0.000497671
0.000511815
0.000524725
0.000536362
0.000546688
0.000555669
0.000563279
0.000569493
0.000574292
0.000577652
0.000579555
0.000580147
0.000579576
0.000577693
0.000574354
0.000569576
-0.000598899
-0.000595891
-0.000592311
-0.000588159
-0.000583433
-0.00057813
-0.000572248
-0.000565786
-0.000558742
-0.000551113
-0.000542897
-0.000534093
-0.0005247
-0.000514716
-0.00050414
-0.000492971
-0.00048121
-0.000468857
-0.000455914
-0.000442382
-0.000428263
-0.000413563
-0.000398284
-0.000382433
-0.000366017
-0.000349044
-0.000331524
-0.000313467
-0.000294887
-0.000275797
-0.000256215
-0.000236157
-0.000215644
-0.000194697
-0.000173342
-0.000151603
-0.000129509
-0.000107091
-8.43807e-05
-6.14143e-05
-3.82285e-05
-1.48627e-05
8.64154e-06
3.22405e-05
5.58886e-05
7.95381e-05
0.00010314
0.000126642
0.000149994
0.00017314
0.000196026
0.000218596
0.000240793
0.000262561
0.000283843
0.000304582
0.000324721
0.000344204
0.000362976
0.000380985
0.000398177
0.000414502
0.000429911
0.00044436
0.000457804
0.000470202
0.000481517
0.000491715
0.000500764
0.000508636
0.000515309
0.000520761
0.000524977
0.000527937
0.000529627
0.000530159
0.000529649
0.000527981
0.000525043
0.000520849
-0.000537561
-0.000534701
-0.000531302
-0.000527362
-0.000522881
-0.000517857
-0.000512291
-0.000506181
-0.000499526
-0.000492327
-0.000484582
-0.000476291
-0.000467455
-0.000458074
-0.000448149
-0.00043768
-0.000426671
-0.000415123
-0.00040304
-0.000390424
-0.000377281
-0.000363616
-0.000349435
-0.000334746
-0.000319557
-0.000303877
-0.000287717
-0.00027109
-0.000254009
-0.000236489
-0.000218546
-0.000200198
-0.000181465
-0.000162369
-0.000142932
-0.00012318
-0.000103138
-8.28364e-05
-6.2304e-05
-4.15733e-05
-2.06781e-05
3.4598e-07
2.14617e-05
4.26302e-05
6.38111e-05
8.49624e-05
0.000106041
0.000127002
0.0001478
0.000168389
0.000188721
0.000208748
0.000228423
0.000247696
0.000266518
0.000284843
0.000302621
0.000319805
0.00033635
0.000352209
0.00036734
0.000381698
0.000395245
0.00040794
0.000419748
0.000430635
0.000440568
0.000449519
0.000457461
0.000464372
0.000470232
0.000475022
0.000478731
0.000481341
0.00048284
0.000483318
0.000482863
0.000481387
0.000478799
0.000475114
-0.000482533
-0.000479833
-0.000476626
-0.000472912
-0.000468691
-0.000463963
-0.000458728
-0.000452987
-0.000446739
-0.000439985
-0.000432726
-0.000424963
-0.000416697
-0.000407931
-0.000398666
-0.000388905
-0.000378652
-0.000367909
-0.000356682
-0.000344975
-0.000332794
-0.000320146
-0.000307038
-0.000293478
-0.000279476
-0.000265043
-0.000250189
-0.000234927
-0.000219272
-0.000203237
-0.00018684
-0.000170098
-0.00015303
-0.000135657
-0.000118001
-0.000100084
-8.19324e-05
-6.35717e-05
-4.50298e-05
-2.63359e-05
-7.52056e-06
1.13841e-05
3.03449e-05
4.93272e-05
6.82952e-05
8.7212e-05
0.00010604
0.000124739
0.000143271
0.000161596
0.000179671
0.000197456
0.00021491
0.000231991
0.000248657
0.000264868
0.000280582
0.000295759
0.000310361
0.000324348
0.000337685
0.000350333
0.000362261
0.000373434
0.000383823
0.000393398
0.000402132
0.000410002
0.000416985
0.000423061
0.000428214
0.00043243
0.000435696
0.000438
0.000439331
0.000439759
0.000439355
0.000438047
0.000435766
0.000432522
-0.000433171
-0.000430636
-0.000427628
-0.000424147
-0.000420194
-0.000415768
-0.000410872
-0.000405505
-0.000399669
-0.000393365
-0.000386596
-0.000379363
-0.000371668
-0.000363514
-0.000354905
-0.000345844
-0.000336335
-0.000326383
-0.000315993
-0.000305171
-0.000293925
-0.00028226
-0.000270185
-0.00025771
-0.000244844
-0.000231597
-0.000217982
-0.000204011
-0.000189699
-0.000175059
-0.000160107
-0.000144862
-0.00012934
-0.000113562
-9.75479e-05
-8.13193e-05
-6.48993e-05
-4.83122e-05
-3.15832e-05
-1.47389e-05
2.19314e-06
1.91842e-05
3.62046e-05
5.32235e-05
7.02092e-05
8.71293e-05
0.000103951
0.000120639
0.00013716
0.000153478
0.000169559
0.000185366
0.000200864
0.000216017
0.00023079
0.000245148
0.000259055
0.000272478
0.000285382
0.000297737
0.000309509
0.000320669
0.000331187
0.000341036
0.000350191
0.000358626
0.000366319
0.000373249
0.000379398
0.000384749
0.000389289
0.000393004
0.000395885
0.000397921
0.000399103
0.000399486
0.000399127
0.000397968
0.000395955
0.000393097
-0.000388893
-0.000386526
-0.000383718
-0.000380471
-0.000376786
-0.000372663
-0.000368104
-0.00036311
-0.000357683
-0.000351826
-0.00034554
-0.000338828
-0.000331694
-0.000324141
-0.000316172
-0.000307792
-0.000299006
-0.000289819
-0.000280238
-0.000270268
-0.000259916
-0.000249191
-0.000238102
-0.000226656
-0.000214865
-0.000202739
-0.00019029
-0.00017753
-0.000164473
-0.000151133
-0.000137525
-0.000123666
-0.000109573
-9.52632e-05
-8.07571e-05
-6.60742e-05
-5.12358e-05
-3.62638e-05
-2.11815e-05
-6.01265e-06
9.21776e-06
2.4484e-05
3.97596e-05
5.50172e-05
7.02288e-05
8.53656e-05
0.000100399
0.000115298
0.000130033
0.000144575
0.000158891
0.000172951
0.000186725
0.000200182
0.000213291
0.000226022
0.000238344
0.00025023
0.00026165
0.000272577
0.000282984
0.000292844
0.000302134
0.00031083
0.000318909
0.000326352
0.000333138
0.000339251
0.000344675
0.000349395
0.000353399
0.000356678
0.000359223
0.000361024
0.000362075
0.000362419
0.000362098
0.000361071
0.000359292
0.00035677
-0.000349172
-0.000346971
-0.000344362
-0.000341346
-0.000337925
-0.000334099
-0.000329871
-0.000325243
-0.000320216
-0.000314794
-0.000308979
-0.000302774
-0.000296183
-0.000289209
-0.000281858
-0.000274134
-0.000266042
-0.000257587
-0.000248777
-0.000239618
-0.000230117
-0.000220282
-0.000210123
-0.000199648
-0.000188866
-0.00017779
-0.00016643
-0.000154799
-0.000142909
-0.000130774
-0.000118409
-0.000105828
-9.30485e-05
-8.00868e-05
-6.69608e-05
-5.36889e-05
-4.02906e-05
-2.6786e-05
-1.3196e-05
4.57747e-07
1.41529e-05
2.78665e-05
4.15747e-05
5.52534e-05
6.88777e-05
8.24223e-05
9.58615e-05
0.000109169
0.000122319
0.000135285
0.000148039
0.000160556
0.000172809
0.00018477
0.000196414
0.000207714
0.000218646
0.000229184
0.000239303
0.00024898
0.000258192
0.000266917
0.000275133
0.000282822
0.000289963
0.00029654
0.000302536
0.000307936
0.000312727
0.000316896
0.000320435
0.000323333
0.000325583
0.000327179
0.000328114
0.000328421
0.000328137
0.000327225
0.000325652
0.000323424
-0.000313535