/*--------------------------------*- C++ -*----------------------------------*\
| =========                 |                                                 |
| \\      /  F ield         | OpenFOAM: The Open Source CFD Toolbox           |
|  \\    /   O peration     | Version:  2306                                  |
|   \\  /    A nd           | Website:  www.openfoam.com                      |
|    \\/     M anipulation  |                                                 |
\*---------------------------------------------------------------------------*/
FoamFile
{
    version     2.0;
    format      ascii;
    arch        "LSB;label=32;scalar=64";
    class       surfaceScalarField;
    location    "87.5";
    object      phi;
}
// * * * * * * * * * * * * * * * * * * * * * * * * * * * * * * * * * * * * * //

dimensions      [0 3 -1 0 0 0 0];

oriented        oriented;

internalField   nonuniform List<scalar> 
37980
(
-0.050331
0.00920009
2.46231e-11
-0.0595641
0.00923307
2.40423e-11
-0.0688351
0.00927098
1.80604e-11
-0.078149
0.00931386
9.44205e-12
-0.0875108
0.0093618
1.10073e-11
-0.0969256
0.00941489
1.1795e-11
-0.106399
0.00947323
1.52756e-11
-0.115936
0.00953693
1.53432e-11
-0.125542
0.00960609
1.8439e-11
-0.135223
0.0096808
1.7974e-11
-0.144984
0.00976114
2.11006e-11
-0.154831
0.0098472
2.03077e-11
-0.16477
0.00993903
2.36067e-11
-0.174807
0.0100367
2.25912e-11
-0.184947
0.0101402
2.61762e-11
-0.195197
0.0102496
2.50105e-11
-0.205561
0.0103648
2.89629e-11
-0.216047
0.0104858
2.76807e-11
-0.22666
0.0106125
3.20623e-11
-0.237404
0.0107447
3.06775e-11
-0.248286
0.0108822
3.55511e-11
-0.259311
0.0110246
3.40715e-11
-0.270483
0.0111717
3.95113e-11
-0.281805
0.0113226
3.79387e-11
-0.293282
0.0114769
4.40253e-11
-0.304916
0.0116334
4.2338e-11
-0.316707
0.011791
4.91356e-11
-0.328655
0.0119481
4.72554e-11
-0.340758
0.012103
5.47801e-11
-0.353011
0.012253
5.25552e-11
-0.365406
0.0123955
6.08009e-11
-0.377933
0.0125267
5.81213e-11
-0.390575
0.0126423
6.73024e-11
-0.403312
0.0127371
6.45238e-11
-0.416117
0.012805
7.56591e-11
-0.428956
0.012839
7.42346e-11
-0.441788
0.0128315
8.95637e-11
-0.454562
0.0127744
9.16263e-11
-0.467223
0.0126608
1.12775e-10
-0.479709
0.0124862
1.16817e-10
-0.491962
0.0122525
1.37951e-10
-0.503935
0.0119734
1.29931e-10
-0.515619
0.0116841
1.29579e-10
-0.527074
0.0114553
8.17334e-11
-0.538489
0.0114146
3.37183e-11
-0.550265
0.0117763
-6.1156e-11
-0.563146
0.012881
-1.34534e-10
-0.578391
0.0152448
-1.92266e-10
-0.598008
0.0196164
-1.59644e-10
-0.625043
0.0270351
1.50209e-11
-0.663926
0.038883
3.54565e-10
-0.720847
0.0569213
9.26816e-10
-0.80401
0.0831628
1.6136e-09
-0.922853
0.118843
2.27683e-09
-1.08526
0.162407
2.51221e-09
-1.29644
0.211185
2.0455e-09
-1.55896
0.262514
8.09546e-10
-1.89135
0.332394
1.66986e-09
-2.42607
0.534717
1.7677e-08
-3.34886
0.922795
3.36283e-08
-4.80554
1.45667
5.03646e-09
-3.4487
3.36787
5.97509e-08
-2.81751
4.09351
-3.45887e-09
-2.4479
4.3551
-5.26019e-09
-2.17106
4.44786
-7.92886e-09
-1.92771
4.48136
-9.29246e-09
-1.69781
4.49481
-1.16754e-08
-1.47565
4.50254
-1.09573e-08
-1.2602
4.50925
-1.01821e-08
-1.05146
4.51597
-8.33017e-09
-0.849316
4.52256
-7.1039e-09
-0.653256
4.52864
-5.67634e-09
-0.462415
4.53386
-4.94398e-09
-0.275648
4.53794
-4.28501e-09
-0.0915608
4.54062
-3.89817e-09
0.0915625
4.54158
-2.98923e-09
0.27565
4.54062
-5.21086e-09
0.462416
4.53794
-4.06456e-09
0.653257
4.53386
-7.5432e-09
4.52864
-7.23436e-09
-0.141869
0.0351401
2.15248e-12
-0.167914
0.0352782
4.43488e-13
-0.194083
0.0354399
-7.43327e-12
-0.220394
0.0356254
-1.33413e-11
-0.246867
0.035835
-1.3927e-11
-0.273522
0.0360694
-1.26319e-11
-0.300378
0.0363291
-1.23377e-11
-0.327456
0.0366146
-1.1763e-11
-0.354776
0.0369269
-1.22051e-11
-0.382362
0.0372665
-1.20355e-11
-0.410235
0.0376344
-1.28349e-11
-0.438419
0.0380314
-1.28795e-11
-0.466939
0.0384584
-1.3918e-11
-0.495819
0.0389165
-1.40789e-11
-0.525085
0.0394066
-1.52753e-11
-0.554766
0.03993
-1.54926e-11
-0.584889
0.0404878
-1.68069e-11
-0.615484
0.0410811
-1.70566e-11
-0.646583
0.0417114
-1.84747e-11
-0.678218
0.04238
-1.87471e-11
-0.710424
0.0430882
-2.02591e-11
-0.743237
0.0438374
-2.05429e-11
-0.776694
0.0446293
-2.21359e-11
-0.810837
0.0454651
-2.24153e-11
-0.845707
0.0463465
-2.40781e-11
-0.881348
0.0472749
-2.43485e-11
-0.917809
0.0482518
-2.61008e-11
-0.955139
0.0492785
-2.64068e-11
-0.993393
0.0503565
-2.8348e-11
-1.03263
0.0514869
-2.88227e-11
-1.0729
0.0526712
-3.11367e-11
-1.11429
0.0539105
-3.19129e-11
-1.15685
0.0552065
-3.46332e-11
-1.20067
0.056561
-3.538e-11
-1.24585
0.0579768
-3.76602e-11
-1.29247
0.0594585
-3.66657e-11
-1.34065
0.0610138
-3.58915e-11
-1.39053
0.0626556
-2.98593e-11
-1.44227
0.064406
-2.28709e-11
-1.49609
0.0663022
-1.09327e-11
-1.55224
0.068406
-1.516e-12
-1.61109
0.070819
3.72908e-12
-1.67311
0.0737049
-7.78396e-12
-1.73898
0.0773228
-4.32019e-11
-1.80964
0.0820738
-1.15676e-10
-1.88642
0.0885631
-2.2007e-10
-1.97122
0.0976773
-3.58037e-10
-2.06665
0.110672
-4.74613e-10
-2.17629
0.129261
-5.58187e-10
-2.30494
0.15568
-4.77125e-10
-2.45875
0.192694
-2.34543e-10
-2.64531
0.243486
3.05902e-10
-2.87347
0.311321
1.01272e-09
-3.15365
0.399026
1.8693e-09
-3.49994
0.508691
3.16936e-09
-3.93354
0.644782
5.63446e-09
-4.49198
0.820955
7.81279e-09
-5.22915
1.06957
9.18745e-09
-6.13071
1.43628
1.5035e-08
-7.0994
1.89149
1.74848e-08
-7.98906
2.34633
2.90413e-09
-7.47243
2.85123
-2.16934e-08
-6.61616
3.23725
-1.96907e-08
-5.75796
3.49689
-1.79076e-08
-4.98261
3.67251
-1.61047e-08
-4.29744
3.79618
-1.29933e-08
-3.68998
3.88735
-1.11169e-08
-3.14464
3.95721
-7.86033e-09
-2.64753
4.01214
-4.72916e-09
-2.18745
4.05588
-2.09599e-09
-1.75558
4.09069
-3.50573e-12
-1.34498
4.11804
1.42836e-09
-0.949965
4.13885
2.33524e-09
-0.565725
4.1537
2.81753e-09
-0.187865
4.16276
3.04367e-09
0.187863
4.16585
3.76765e-09
0.565723
4.16276
3.00862e-09
0.949964
4.1537
3.47608e-09
1.34497
4.13885
1.73221e-09
4.11804
6.96212e-10
-0.20057
0.0718151
-4.96262e-12
-0.237398
0.0721062
-1.0056e-11
-0.274408
0.0724495
-1.31626e-11
-0.311628
0.0728455
-2.01497e-11
-0.349088
0.0732953
-1.93279e-11
-0.386819
0.0737999
-1.68823e-11
-0.424851
0.0743608
-1.5583e-11
-0.463216
0.0749795
-1.45088e-11
-0.501947
0.0756578
-1.44928e-11
-0.541078
0.0763976
-1.41438e-11
-0.580644
0.0772011
-1.46696e-11
-0.620683
0.0780705
-1.46521e-11
-0.661233
0.0790084
-1.54918e-11
-0.702335
0.0800177
-1.56577e-11
-0.744029
0.0811012
-1.67087e-11
-0.786362
0.0822624
-1.69924e-11
-0.829379
0.0835047
-1.82185e-11
-0.873129
0.0848321
-1.86035e-11
-0.917667
0.0862487
-2.00024e-11
-0.963046
0.0877592
-2.04932e-11
-1.00933
0.0893685
-2.20746e-11
-1.05657
0.091082
-2.2682e-11
-1.10485
0.0929056
-2.44603e-11
-1.15423
0.0948458
-2.52007e-11
-1.20479
0.0969095
-2.72029e-11
-1.25662
0.0991045
-2.81156e-11
-1.30981
0.101439
-3.04121e-11
-1.36445
0.103923
-3.16014e-11
-1.42066
0.106567
-3.43591e-11
-1.47856
0.109382
-3.60402e-11
-1.53827
0.112382
-3.95387e-11
-1.59994
0.115582
-4.19678e-11
-1.66374
0.119001
-4.63894e-11
-1.72983
0.122659
-4.94167e-11
-1.79844
0.126582
-5.41208e-11
-1.86978
0.130803
-5.62198e-11
-1.94413
0.135362
-5.87124e-11
-2.02179
0.140312
-5.64598e-11
-2.10311
0.145725
-5.30917e-11
-2.1885
0.151696
-4.44313e-11
-2.27846
0.158361
-3.69381e-11
-2.37355
0.165913
-3.14995e-11
-2.47447
0.174626
-3.9285e-11
-2.58204
0.184895
-6.7653e-11
-2.69726
0.197288
-1.27913e-10
-2.8213
0.212606
-2.21213e-10
-2.95559
0.231964
-3.45666e-10
-3.10179
0.256873
-4.67373e-10
-3.26184
0.289313
-5.64508e-10
-3.43793
0.331775
-5.49676e-10
-3.63247
0.387228
-4.0389e-10
-3.84798
0.458993
-4.2151e-11
-4.08721
0.550557
4.59744e-10
-4.35372
0.665533
1.05891e-09
-4.65318
0.808154
1.79727e-09
-4.9919
0.983496
2.90173e-09
-5.36676
1.19582
4.3527e-09
-5.74347
1.44628
5.97075e-09
-6.03675
1.72955
7.12507e-09
-6.17262
2.02736
5.49842e-09
-6.13912
2.31283
3.60404e-09
-5.86827
2.58038
1.40941e-09
-5.44874
2.81772
-1.23423e-09
-4.9701
3.01825
-3.50098e-09
-4.48
3.18241
-4.65502e-09
-3.99861
3.31479
-5.15173e-09
-3.53242
3.42116
-4.69546e-09
-3.08191
3.50669
-3.97798e-09
-2.6453
3.57554
-2.95212e-09
-2.22029
3.63087
-1.9892e-09
-1.80461
3.67502
-1.16532e-09
-1.39625
3.70968
-5.90204e-10
-0.993404
3.73601
-2.34333e-10
-0.594453
3.75475
-5.87475e-11
-0.197877
3.76618
-9.67764e-12
0.197878
3.7701
2.99472e-10
0.594453
3.76618
1.45128e-10
0.993405
3.75475
2.86868e-10
1.39625
3.73601
-3.39371e-10
3.70968
-9.4516e-10
-0.228412
0.113579
2.30632e-11
-0.27035
0.114044
2.38754e-11
-0.312494
0.114594
1.49937e-11
-0.35488
0.115231
1.15442e-11
-0.39754
0.115955
1.14137e-11
-0.44051
0.11677
1.26364e-11
-0.483826
0.117677
1.31297e-11
-0.527527
0.11868
1.39264e-11
-0.571649
0.11978
1.41513e-11
-0.616233
0.120982
1.49185e-11
-0.66132
0.122289
1.51453e-11
-0.706954
0.123705
1.59738e-11
-0.75318
0.125235
1.62307e-11
-0.800046
0.126883
1.71442e-11
-0.847601
0.128656
1.74596e-11
-0.895899
0.13056
1.84837e-11
-0.944994
0.1326
1.8885e-11
-0.994946
0.134784
2.00427e-11
-1.04582
0.13712
2.05585e-11
-1.09767
0.139616
2.1877e-11
-1.15059
0.142283
2.25443e-11
-1.20464
0.145131
2.40606e-11
-1.2599
0.14817
2.49279e-11
-1.31647
0.151415
2.66893e-11
-1.37444
0.15488
2.78112e-11
-1.43392
0.158579
2.9862e-11
-1.49501
0.162531
3.12766e-11
-1.55784
0.166756
3.36267e-11
-1.62255
0.171276
3.53104e-11
-1.68928
0.176116
3.7893e-11
-1.75821
0.181305
3.97375e-11
-1.8295
0.186876
4.2452e-11
-1.90337
0.192868
4.44231e-11
-1.98003
0.199324
4.74979e-11
-2.05975
0.206299
5.02469e-11
-2.1428
0.213853
5.51064e-11
-2.2295
0.222063
6.09771e-11
-2.32021
0.231022
7.09578e-11
-2.41533
0.240844
8.38627e-11
-2.51531
0.251674
1.02113e-10
-2.62064
0.263697
1.22763e-10
-2.73189
0.277155
1.44058e-10
-2.84963
0.292366
1.59428e-10
-2.97448
0.309753
1.60514e-10
-3.10708
0.329881
1.39602e-10
-3.24798
0.353505
8.88548e-11
-3.39763
0.381618
8.89042e-12
-3.55627
0.415512
-8.82863e-11
-3.72377
0.456819
-1.87271e-10
-3.89954
0.507538
-2.42735e-10
-4.08232
0.570011
-2.35075e-10
-4.27018
0.64685
-1.08094e-10
-4.46043
0.740808
1.27741e-10
-4.64954
0.854645
4.59162e-10
-4.83223
0.990842
8.91222e-10
-4.99925
1.15052
1.39218e-09
-5.13559
1.33216
2.00103e-09
-5.22074
1.53143
2.52505e-09
-5.23302
1.74183
2.93791e-09
-5.1607
1.95504
2.93084e-09
-5.00998
2.16211
2.7491e-09
-4.78672
2.35712
2.11483e-09
-4.50467
2.53568
1.48368e-09
-4.18148
2.69506
6.8653e-10
-3.83307
2.834
2.15271e-10
-3.47111
2.95283
-2.14963e-10
-3.10305
3.0531
-2.87923e-10
-2.73321
3.13685
-3.52083e-10
-2.36389
3.20622
-2.0787e-10
-1.99614
3.26311
-1.34511e-10
-1.63025
3.30914
7.4036e-12
-1.26614
3.34556
5.36899e-11
-0.903458
3.37332
1.10772e-10
-0.541748
3.39304
1.15193e-10
-0.180538
3.40497
1.21912e-10
0.180541
3.40902
2.04156e-10
0.541751
3.40497
2.87074e-10
0.903461
3.39304
3.11792e-10
1.26614
3.37332
3.78373e-10
3.34556
1.54313e-10
-0.237307
0.156963
-5.15386e-12
-0.280867
0.157604
-1.10558e-11
-0.324637
0.158364
-1.19981e-11
-0.36865
0.159244
-1.9062e-11
-0.412943
0.160248
-1.78657e-11
-0.45755
0.161378
-1.52432e-11
-0.502509
0.162636
-1.39738e-11
-0.547858
0.164028
-1.30043e-11
-0.593635
0.165557
-1.3144e-11
-0.639882
0.167229
-1.2882e-11
-0.686641
0.169047
-1.34943e-11
-0.733955
0.171019
-1.3479e-11
-0.781871
0.173151
-1.43379e-11
-0.830437
0.175449
-1.44528e-11
-0.879704
0.177923
-1.5492e-11
-0.929724
0.18058
-1.57017e-11
-0.980555
0.183431
-1.69054e-11
-1.03226
0.186485
-1.72062e-11
-1.08489
0.189754
-1.85785e-11
-1.13852
0.193251
-1.8978e-11
-1.19323
0.19699
-2.05304e-11
-1.24909
0.200987
-2.10404e-11
-1.30618
0.205258
-2.27871e-11
-1.36458
0.209823
-2.34217e-11
-1.42441
0.214703
-2.53851e-11
-1.48575
0.219922
-2.61715e-11
-1.54872
0.225504
-2.83991e-11
-1.61345
0.231481
-2.94022e-11
-1.68006
0.237886
-3.20025e-11
-1.7487
0.244754
-3.33622e-11
-1.81952
0.25213
-3.6532e-11
-1.89271
0.260061
-3.84485e-11
-1.96844
0.268602
-4.23819e-11
-2.04693
0.277817
-4.48872e-11
-2.12841
0.287778
-4.93624e-11
-2.21313
0.298572
-5.17096e-11
-2.30137
0.310299
-5.53287e-11
-2.39342
0.323076
-5.53551e-11
-2.48962
0.337043
-5.53672e-11
-2.59031
0.352369
-5.05517e-11
-2.69588
0.369259
-4.56513e-11
-2.80668
0.387961
-3.82975e-11
-2.9231
0.408784
-3.56999e-11
-3.04546
0.432112
-4.01498e-11
-3.174
0.458424
-6.0197e-11
-3.30882
0.488322
-9.94638e-11
-3.44976
0.522555
-1.62122e-10
-3.59629
0.562048
-2.41592e-10
-3.74739
0.607917
-3.32723e-10
-3.90133
0.661477
-4.08858e-10
-4.05554
0.724219
-4.6022e-10
-4.20644
0.797752
-4.47543e-10
-4.34934
0.88371
-3.67391e-10
-4.4783
0.983609
-2.02043e-10
-4.58601
1.09855
2.80036e-11
-4.66414
1.22865
2.78504e-10
-4.70445
1.37247
5.374e-10
-4.69992
1.5269
7.44714e-10
-4.64577
1.68767
9.50623e-10
-4.54065
1.84993
1.04695e-09
-4.3875
2.00896
1.06622e-09
-4.19122
2.16085
9.04965e-10
-3.95814
2.30259
6.99111e-10
-3.69523
2.43215
4.09165e-10
-3.40957
2.54834
1.8012e-10
-3.10754
2.65081
-4.05792e-11
-2.79431
2.73986
-1.6247e-10
-2.47374
2.81628
-2.60804e-10
-2.14855
2.88104
-2.88895e-10
-1.82059
2.93515
-3.16138e-10
-1.49101
2.97955
-3.12915e-10
-1.16048
3.01504
-3.22822e-10
-0.829379
3.04222
-3.23266e-10
-0.497856
3.06151
-3.32307e-10
-0.166
3.07312
-3.3963e-10
0.166004
3.07701
-3.25329e-10
0.497859
3.07312
-2.6863e-10
0.829383
3.06151
-3.19045e-10
1.16049
3.04222
-2.55651e-10
3.01504
-3.87312e-10
-0.236983
0.200276
2.74726e-11
-0.280464
0.201085
2.90776e-11
-0.324144
0.202044
2.08967e-11
-0.368056
0.203156
1.8581e-11
-0.412233
0.204425
1.83561e-11
-0.456708
0.205853
1.91679e-11
-0.501517
0.207445
1.9417e-11
-0.546696
0.209207
1.99767e-11
-0.59228
0.211142
2.01896e-11
-0.638309
0.213257
2.08938e-11
-0.684822
0.21556
2.12789e-11
-0.73186
0.218057
2.21653e-11
-0.779465
0.220756
2.26945e-11
-0.827683
0.223668
2.37329e-11
-0.876561
0.2268
2.43932e-11
-0.926146
0.230166
2.55792e-11
-0.976492
0.233776
2.63823e-11
-1.02765
0.237644
2.77301e-11
-1.07968
0.241785
2.87056e-11
-1.13265
0.246214
3.02437e-11
-1.18661
0.25095
3.14358e-11
-1.24163
0.256012
3.32053e-11
-1.29779
0.261421
3.46727e-11
-1.35517
0.267201
3.6728e-11
-1.41385
0.273378
3.85417e-11
-1.47391
0.279983
4.09449e-11
-1.53545
0.287047
4.318e-11
-1.59857
0.294606
4.59871e-11
-1.66339
0.302702
4.86991e-11
-1.73002
0.311379
5.19321e-11
-1.79857
0.320689
5.51307e-11
-1.8692
0.330689
5.87713e-11
-1.94205
0.341444
6.24565e-11
-2.01726
0.353027
6.65616e-11
-2.095
0.365523
7.0956e-11
-2.17545
0.379025
7.60271e-11
-2.2588
0.393644
8.20774e-11
-2.34523
0.409504
8.95532e-11
-2.43493
0.426751
9.92441e-11
-2.52812
0.44555
1.11191e-10
-2.62495
0.466098
1.26288e-10
-2.72561
0.48862
1.42742e-10
-2.83022
0.513385
1.60807e-10
-2.93881
0.540706
1.75238e-10
-3.05134
0.570955
1.85775e-10
-3.16759
0.604571
1.84842e-10
-3.2871
0.64207
1.74004e-10
-3.40911
0.684056
1.49375e-10
-3.53241
0.73122
1.16721e-10
-3.65527
0.784333
8.24524e-11
-3.77528
0.844229
5.39228e-11
-3.88928
0.911753
4.62295e-11
-3.99327
0.987701
6.20399e-11
-4.08238
1.07271
1.12184e-10
-4.15095
1.16713
1.9088e-10
-4.19308
1.27077
2.86037e-10
-4.20339
1.38277
3.89993e-10
-4.17792
1.50144
4.66975e-10
-4.11466
1.62441
5.3392e-10
-4.01359
1.74886
5.48364e-10
-3.87657
1.87194
5.43622e-10
-3.70676
1.99103
4.75761e-10
-3.50811
2.10395
4.01469e-10
-3.28498
2.20902
2.93395e-10
-3.04178
2.30513
2.08188e-10
-2.78264
2.39167
1.21478e-10
-2.51122
2.46845
6.97604e-11
-2.23056
2.53562
2.46249e-11
-1.94308
2.59356
7.02541e-12
-1.65064
2.6427
-8.9887e-12
-1.3546
2.68352
-1.08397e-11
-1.056
2.71644
-1.59537e-11
-0.755569
2.74179
-1.55908e-11
-0.45387
2.75981
-1.40318e-11
-0.151382
2.77063
-2.66334e-12
0.151385
2.77425
6.07739e-11
0.453873
2.77063
-2.60275e-11
0.755572
2.75981
5.07265e-11
1.056
2.74179
-5.96647e-11
2.71644
-4.88986e-11
-0.232535
0.242761
-1.07031e-11
-0.275173
0.243722
-1.53092e-11
-0.317992
0.244863
-1.41489e-11
-0.361021
0.246186
-1.85059e-11
-0.40429
0.247694
-1.72964e-11
-0.447831
0.249393
-1.53172e-11
-0.491673
0.251288
-1.44934e-11
-0.535849
0.253383
-1.38919e-11
-0.580392
0.255685
-1.41894e-11
-0.625335
0.258201
-1.41473e-11
-0.670714
0.260939
-1.48136e-11
-0.716564
0.263907
-1.4968e-11
-0.762922
0.267115
-1.58326e-11
-0.809828
0.270573
-1.61068e-11
-0.857321
0.274294
-1.71301e-11
-0.905444
0.278288
-1.75065e-11
-0.954239
0.282571
-1.86807e-11
-1.00375
0.287158
-1.91596e-11
-1.05403
0.292065
-2.04863e-11
-1.10513
0.29731
-2.10733e-11
-1.15709
0.302914
-2.2557e-11
-1.20998
0.308899
-2.32582e-11
-1.26385
0.315288
-2.4903e-11
-1.31875
0.322109
-2.57247e-11
-1.37477
0.32939
-2.75354e-11
-1.43195
0.337166
-2.8487e-11
-1.49037
0.34547
-3.04742e-11
-1.55011
0.354343
-3.1577e-11
-1.61124
0.363828
-3.37732e-11
-1.67383
0.373975
-3.50804e-11
-1.73798
0.384837
-3.75598e-11
-1.80376
0.396475
-3.9173e-11
-1.87128
0.408955
-4.20466e-11
-1.9406
0.422352
-4.40696e-11
-2.01183
0.436751
-4.73764e-11
-2.08505
0.452243
-4.97299e-11
-2.16034
0.468935
-5.31559e-11
-2.23778
0.486944
-5.52529e-11
-2.31743
0.506402
-5.78474e-11
-2.39934
0.527457
-5.8581e-11
-2.48351
0.550276
-5.92115e-11
-2.56994
0.575048
-5.80801e-11
-2.65854
0.601983
-5.72563e-11
-2.74915
0.631319
-5.67267e-11
-2.84152
0.663325
-5.90785e-11
-2.93525
0.698299
-6.57862e-11
-3.02975
0.736573
-7.91667e-11
-3.12421
0.778515
-9.96842e-11
-3.21751
0.824519
-1.27997e-10
-3.30818
0.875002
-1.59753e-10
-3.39433
0.930379
-1.94829e-10
-3.47362
0.991041
-2.24205e-10
-3.54323
1.05731
-2.47373e-10
-3.59989
1.12938
-2.5707e-10
-3.64002
1.20725
-2.54161e-10
-3.6599
1.29065
-2.41492e-10
-3.65608
1.37895
-2.1765e-10
-3.62581
1.47117
-1.97259e-10
-3.56737
1.56597
-1.72092e-10
-3.48028
1.66177
-1.66105e-10
-3.36523
1.75689
-1.59214e-10
-3.2239
1.8497
-1.90403e-10
-3.05864
1.93869
-1.91611e-10
-2.87228
2.02266
-2.22941e-10
-2.66778
2.10063
-2.40935e-10
-2.4481
2.17198
-2.65762e-10
-2.21597
2.23632
-2.74563e-10
-1.97384
2.29349
-2.85212e-10
-1.72379
2.3435
-2.83225e-10
-1.46755
2.38646
-2.82624e-10
-1.20654
2.42251
-2.75125e-10
-0.941917
2.45182
-2.7e-10
-0.67464
2.47451
-2.64915e-10
-0.405519
2.49069
-2.63716e-10
-0.135296
2.5004
-2.64763e-10
0.135298
2.50365
-2.3823e-10
0.405521
2.5004
-2.82926e-10
0.674642
2.49069
-3.50712e-10
0.94192
2.47451
-4.52395e-10
2.45182
-5.90814e-10
-0.226083
0.284048
1.77892e-11
-0.267503
0.285143
2.10127e-11
-0.309082
0.286442
1.55538e-11
-0.350845
0.287948
1.6587e-11
-0.392817
0.289667
1.63148e-11
-0.435026
0.291602
1.63273e-11
-0.477497
0.293759
1.60683e-11
-0.520257
0.296143
1.62335e-11
-0.563335
0.298763
1.62951e-11
-0.606759
0.301625
1.67464e-11
-0.650558
0.304737
1.70479e-11
-0.694761
0.30811
1.76835e-11
-0.7394
0.311753
1.81318e-11
-0.784505
0.315678
1.88843e-11
-0.830109
0.319897
1.94417e-11
-0.876245
0.324424
2.02887e-11
-0.922946
0.329273
2.09546e-11
-0.970249
0.334461
2.18992e-11
-1.01819
0.340005
2.26941e-11
-1.0668
0.345925
2.37536e-11
-1.11613
0.352241
2.47107e-11
-1.16621
0.358978
2.59113e-11
-1.21708
0.366159
2.70743e-11
-1.26879
0.373813
2.84504e-11
-1.32137
0.38197
2.98731e-11
-1.37486
0.390663
3.14656e-11
-1.42932
0.399927
3.3209e-11
-1.48478
0.409804
3.50598e-11
-1.54129
0.420335
3.71823e-11
-1.59888
0.43157
3.93197e-11
-1.6576
0.443559
4.18612e-11
-1.71749
0.456361
4.42822e-11
-1.77858
0.470039
4.72517e-11
-1.84089
0.484663
4.9926e-11
-1.90444
0.500307
5.33299e-11
-1.96926
0.517058
5.62228e-11
-2.03533
0.535005
6.01687e-11
-2.10263
0.554251
6.36877e-11
-2.17114
0.574905
6.89919e-11
-2.24077
0.597089
7.37792e-11
-2.31143
0.620933
8.06524e-11
-2.38296
0.646583
8.70447e-11
-2.45517
0.674193
9.63046e-11
-2.52778
0.70393
1.03962e-10
-2.60043
0.735975
1.13991e-10
-2.67265
0.770517
1.20147e-10
-2.74383
0.807757
1.27248e-10
-2.81322
0.847902
1.26965e-10
-2.87986
0.891156
1.38448e-10
-2.94257
0.937719
1.12353e-10
-2.99997
0.987769
1.1526e-10
-3.05037
1.04145
1.03132e-10
-3.09189
1.09883
9.49118e-11
-3.12242
1.15991
8.45577e-11
-3.13973
1.22456
8.11094e-11
-3.14157
1.2925
7.58858e-11
-3.12588
1.36326
7.88672e-11
-3.09091
1.43621
7.67374e-11
-3.03548
1.51053
8.1972e-11
-2.95899
1.58528
7.71104e-11
-2.86154
1.65945
7.82219e-11
-2.74387
1.73203
6.65972e-11
-2.60722
1.80204
6.11545e-11
-2.45322
1.86865
4.4581e-11
-2.28374
1.93115
3.59867e-11
-2.10074
1.98898
2.00104e-11
-1.90616
2.04174
1.28791e-11
-1.70183
2.08917
1.89433e-12
-1.48943
2.1311
-7.6681e-13
-1.27044
2.16747
-4.74656e-12
-1.04618
2.19825
-2.03464e-12
-0.817794
2.22343
-4.05449e-13
-0.586305
2.24302
3.1044e-12
-0.352645
2.25703
8.604e-12
-0.117692
2.26545
2.55703e-11
0.117694
2.26827
1.15879e-10
0.352647
2.26545
-6.52382e-11
0.586307
2.25703
-1.05829e-11
0.817796
2.24302
-2.51911e-10
2.22343
-2.83776e-10
-0.218422
0.323914
-1.78975e-11
-0.2584
0.325121
-2.11319e-11
-0.298511
0.326553
-1.73325e-11
-0.338777
0.328214
-1.89281e-11
-0.379218
0.330108
-1.80381e-11
-0.419856
0.33224
-1.69829e-11
-0.460713
0.334615
-1.6697e-11
-0.50181
0.337241
-1.64805e-11
-0.543171
0.340123
-1.68865e-11
-0.584817
0.343271
-1.70425e-11
-0.626771
0.346691
-1.77179e-11
-0.669056
0.350395
-1.80417e-11
-0.711696
0.354393
-1.88832e-11
-0.754713
0.358696
-1.93311e-11
-0.798133
0.363317
-2.03116e-11
-0.841979
0.36827
-2.08698e-11
-0.886275
0.373569
-2.19803e-11
-0.931045
0.379231
-2.26545e-11
-0.976314
0.385274
-2.38894e-11
-1.02211
0.391717
-2.4678e-11
-1.06845
0.398581
-2.60401e-11
-1.11536
0.405889
-2.69544e-11
-1.16286
0.413664
-2.84386e-11
-1.21098
0.421935
-2.94804e-11
-1.25975
0.430731
-3.10752e-11
-1.30916
0.440082
-3.22388e-11
-1.35926
0.450023
-3.3919e-11
-1.41005
0.460591
-3.52013e-11
-1.46154
0.471827
-3.69584e-11
-1.51374
0.483773
-3.83672e-11
-1.56666
0.496479
-4.01868e-11
-1.62029
0.509994
-4.17533e-11
-1.67463
0.524375
-4.36578e-11
-1.72965
0.539681
-4.54427e-11
-1.78532
0.555978
-4.74604e-11
-1.8416
0.573334
-4.95379e-11
-1.89842
0.591826
-5.1709e-11
-1.9557
0.611533
-5.39744e-11
-2.01334
0.632542
-5.5778e-11
-2.07119
0.654945
-5.79203e-11
-2.1291
0.678837
-5.94646e-11
-2.18683
0.704322
-6.13215e-11
-2.24415
0.731505
-6.18263e-11
-2.30071
0.760496
-6.32334e-11
-2.35614
0.791406
-6.33859e-11
-2.40997
0.824348
-6.09233e-11
-2.46165
0.859431
-6.88346e-11
-2.5105
0.896758
-6.96198e-11
-2.55577
0.936421
-7.3882e-11
-2.59654
0.978495
-8.28797e-11
-2.6318
1.02303
-9.14596e-11
-2.6604
1.07004
-1.05731e-10
-2.68106
1.11949
-1.17717e-10
-2.69244
1.17129
-1.34637e-10
-2.69316
1.22528
-1.46628e-10
-2.68185
1.28119
-1.62669e-10
-2.65728
1.33868
-1.71237e-10
-2.61838
1.39732
-1.84016e-10
-2.56442
1.45656
-1.87858e-10
-2.49496
1.51582
-1.9719e-10
-2.40996
1.57445
-1.97333e-10
-2.30975
1.63182
-2.04426e-10
-2.19499
1.68728
-2.02805e-10
-2.06661
1.74027
-2.08701e-10
-1.92574
1.79028
-2.0657e-10
-1.77363
1.83687
-2.11261e-10
-1.61158
1.87969
-2.08664e-10
-1.44089
1.91848
-2.11107e-10
-1.26282
1.95303
-2.06956e-10
-1.07853
1.98319
-2.05428e-10
-0.889148
2.00886
-1.98508e-10
-0.695687
2.02997
-1.93327e-10
-0.499114
2.04645
-1.88157e-10
-0.300343
2.05826
-1.83313e-10
-0.10026
2.06537
-1.70793e-10
0.100262
2.06775
-9.57814e-11
0.300345
2.06537
-2.39149e-10
0.499116
2.05826
-2.71882e-10
0.695689
2.04645
-5.05818e-10
2.02997
-6.27272e-10
-0.209894
0.362199
8.65582e-12
-0.248269
0.363496
1.23929e-11
-0.28675
0.365035
9.95537e-12
-0.325355
0.366819
1.3173e-11
-0.3641
0.368853
1.26411e-11
-0.403001
0.371141
1.18746e-11
-0.442076
0.37369
1.11816e-11
-0.48134
0.376505
1.10028e-11
-0.52081
0.379594
1.0931e-11
-0.560503
0.382964
1.11336e-11
-0.600435
0.386624
1.13251e-11
-0.640623
0.390583
1.16868e-11
-0.681083
0.394853
1.20062e-11
-0.72183
0.399443
1.24479e-11
-0.76288
0.404367
1.28927e-11
-0.804249
0.409638
1.35423e-11
-0.84595
0.415271
1.4147e-11
-0.887999
0.42128
1.47642e-11
-0.930409
0.427684
1.50457e-11
-0.973191
0.434499
1.54374e-11
-1.01636
0.441747
1.59908e-11
-1.05992
0.449449
1.65725e-11
-1.10388
0.457627
1.73609e-11
-1.14825
0.466306
1.81419e-11
-1.19303
0.475513
1.9299e-11
-1.23823
0.485277
2.01449e-11
-1.28383
0.495628
2.11519e-11
-1.32984
0.506599
2.18168e-11
-1.37624
0.518226
2.29221e-11
-1.42301
0.530546
2.37304e-11
-1.47014
0.543601
2.53005e-11
-1.51758
0.557433
2.62611e-11
-1.56529
0.572089
2.81128e-11
-1.61322
0.587617
2.91141e-11
-1.66132
0.60407
3.12241e-11
-1.70948
0.621502
3.21976e-11
-1.75763
0.639971
3.45498e-11
-1.80563
0.659537
3.54426e-11
-1.85336
0.680264
3.80787e-11
-1.90063
0.702215
3.88969e-11
-1.94725
0.725458
4.19157e-11
-1.99298
0.75006
4.27158e-11
-2.03757
0.776087
4.62659e-11
-2.08068
0.803605
4.7028e-11
-2.12195
0.832677
5.09978e-11
-2.16096
0.863361
5.12417e-11
-2.19723
0.895706
5.50327e-11
-2.23023
0.929753
5.36305e-11
-2.25934
0.965528
5.56261e-11
-2.28388
1.00304
5.10364e-11
-2.30312
1.04227
4.98373e-11
-2.31626
1.08318
4.09361e-11
-2.32246
1.12569
3.60022e-11
-2.32085
1.16968
2.31055e-11
-2.31056
1.21499
1.54751e-11
-2.29077
1.2614
3.86163e-13
-2.26074
1.30865
-7.84262e-12
-2.21984
1.35641
-2.27969e-11
-2.16761
1.40433
-2.96967e-11
-2.10379
1.45201
-4.28479e-11
-2.02835
1.49901
-4.76068e-11
-1.94146
1.54492
-5.84699e-11
-1.84348
1.58931
-6.14326e-11
-1.73499
1.63178
-7.03477e-11
-1.61668
1.67197
-7.23066e-11
-1.48935
1.70954
-7.96427e-11
-1.35389
1.74423
-8.09613e-11
-1.21119
1.77578
-8.6373e-11
-1.06217
1.80401
-8.63101e-11
-0.907742
1.82876
-8.84436e-11
-0.748783
1.8499
-8.56468e-11
-0.586156
1.86734
-8.45076e-11
-0.420696
1.88099
-8.22254e-11
-0.253222
1.89079
-7.77722e-11
-0.0845414
1.89669
-5.73535e-11
0.0845422
1.89866
4.11289e-11
0.253222
1.89669
-1.33071e-10
0.420696
1.89079
-1.12866e-10
0.586156
1.88099
-3.63945e-10
1.86734
-4.46973e-10
-0.200704
0.398783
-2.28298e-11
-0.237356
0.400147
-2.45092e-11
-0.274088
0.401766
-1.90226e-11
-0.310911
0.403642
-1.78807e-11
-0.347839
0.40578
-1.72899e-11
-0.384883
0.408185
-1.70887e-11
-0.422054
0.410861
-1.72673e-11
-0.459363
0.413815
-1.73713e-11
-0.496823
0.417053
-1.78141e-11
-0.534444
0.420584
-1.81088e-11
-0.572236
0.424416
-1.87203e-11
-0.610209
0.428556
-1.91503e-11
-0.648373
0.433016
-1.98824e-11
-0.686736
0.437806
-2.04247e-11
-0.725307
0.442938
-2.1255e-11
-0.764092
0.448423
-2.18969e-11
-0.803097
0.454276
-2.28102e-11
-0.842328
0.460511
-2.35533e-11
-0.881789
0.467144
-2.45351e-11
-0.92148
0.474191
-2.53717e-11
-0.961403
0.48167
-2.64123e-11
-1.00155
0.489601
-2.73464e-11
-1.04193
0.498004
-2.8427e-11
-1.08253
0.506901
-2.94521e-11
-1.12333
0.516315
-3.05442e-11
-1.16432
0.526271
-3.16442e-11
-1.20549
0.536796
-3.2701e-11
-1.24681
0.547917
-3.3859e-11
-1.28825
0.559665
-3.4842e-11
-1.32977
0.57207
-3.60412e-11
-1.37134
0.585167
-3.68909e-11
-1.41289
0.598988
-3.81225e-11
-1.45437
0.613572
-3.87968e-11
-1.49571
0.628955
-4.00661e-11
-1.53682
0.645178
-4.05211e-11
-1.5776
0.66228
-4.18434e-11
-1.61793
0.680305
-4.20327e-11
-1.65769
0.699293
-4.34262e-11
-1.69671
0.719289
-4.32864e-11
-1.73483
0.740334
-4.47517e-11
-1.77185
0.762471
-4.41804e-11
-1.80753
0.78574
-4.56863e-11
-1.84162
0.810179
-4.4553e-11
-1.87383
0.835821
-4.60835e-11
-1.90385
0.862696
-4.43281e-11
-1.93132
0.890826
-4.60128e-11
-1.95584
0.920225
-4.38249e-11
-1.97698
0.950895
-4.6114e-11
-1.99428
0.982826
-4.40528e-11
-2.00723
1.01599
-4.76825e-11
-2.01531
1.05035
-4.65291e-11
-2.01797
1.08583
-5.21953e-11
-2.01463
1.12235
-5.24948e-11
-2.00474
1.15979
-6.03193e-11
-1.98774
1.198
-6.19148e-11
-1.96314
1.2368
-7.11629e-11
-1.93048
1.27599
-7.31588e-11
-1.88939
1.31533
-8.24962e-11
-1.83962
1.35456
-8.37451e-11
-1.78102
1.3934
-9.18757e-11
-1.71357
1.43156
-9.16136e-11
-1.6374
1.46874
-9.78211e-11
-1.55273
1.50465
-9.5978e-11
-1.45995
1.539
-1.00218e-10
-1.3595
1.57152
-9.72605e-11
-1.25192
1.60197
-9.98373e-11
-1.13783
1.63013
-9.62754e-11
-1.01785
1.65581
-9.72724e-11
-0.892676
1.67883
-9.30168e-11
-0.762984
1.69907
-9.17798e-11
-0.62947
1.71639
-8.62344e-11
-0.49283
1.7307
-8.3012e-11
-0.353759
1.74192
-7.91528e-11
-0.212951
1.74998
-7.20526e-11
-0.0710999
1.75484
-4.71927e-11
0.0711004
1.75646
5.69039e-11
0.212952
1.75484
-1.05537e-10
0.35376
1.74998
-7.77264e-11
0.49283
1.74192
-3.17678e-10
1.7307
-3.91859e-10
-0.191026
0.433578
3.4184e-12
-0.225867
0.434988
7.52354e-12
-0.260762
0.436661
6.97174e-12
-0.295718
0.438599
1.15129e-11
-0.330744
0.440806
1.08622e-11
-0.365847
0.443287
9.61158e-12
-0.401034
0.446047
8.64996e-12
-0.43631
0.449091
8.21206e-12
-0.471683
0.452426
8.03421e-12
-0.507158
0.456059
8.02176e-12
-0.542739
0.459997
8.11787e-12
-0.578432
0.464249
8.24351e-12
-0.614238
0.468823
8.4551e-12
-0.650161
0.473729
8.62385e-12
-0.686202
0.478979
8.89719e-12
-0.722361
0.484582
9.07097e-12
-0.758637
0.490552
9.39077e-12
-0.795027
0.496901
9.55531e-12
-0.831527
0.503643
9.92235e-12
-0.868129
0.510793
1.00704e-11
-0.904826
0.518367
1.04912e-11
-0.941605
0.52638
1.06172e-11
-0.978452
0.534851
1.11006e-11
-1.01535
0.543799
1.11973e-11
-1.05228
0.553243
1.17528e-11
-1.08921
0.563204
1.18108e-11
-1.12612
0.573703
1.24489e-11
-1.16297
0.584764
1.24542e-11
-1.19971
0.59641
1.31833e-11
-1.23631
0.608667
1.31142e-11
-1.2727
0.621559
1.39379e-11
-1.30883
0.635114
1.37604e-11
-1.34461
0.649358
1.46733e-11
-1.37998
0.66432
1.43353e-11
-1.41483
0.680028
1.53173e-11
-1.44906
0.696511
1.47432e-11
-1.48255
0.713796
1.57567e-11
-1.51517
0.731911
1.48478e-11
-1.54676
0.750884
1.58406e-11
-1.57717
0.77074
1.44805e-11
-1.6062
0.791501
1.53944e-11
-1.63365
0.81319
1.34626e-11
-1.65929
0.835823
1.42387e-11
-1.68288
0.859411
1.16067e-11
-1.70415
0.883963
1.21648e-11
-1.7228
0.909479
8.6674e-12
-1.73853
0.93595
8.85111e-12
-1.75099
0.963358
4.23463e-12
-1.75984
0.991676
3.75643e-12
-1.76471
1.02086
-2.32292e-12
-1.76522
1.05086
-3.84227e-12
-1.76099
1.0816
-1.17021e-11
-1.75164
1.113
-1.45659e-11
-1.73679
1.14494
-2.42703e-11
-1.7161
1.1773
-2.84769e-11
-1.68925
1.20995
-3.96489e-11
-1.65597
1.24271
-4.47831e-11
-1.61604
1.27541
-5.66269e-11
-1.56933
1.30785
-6.19899e-11
-1.51576
1.33983
-7.35374e-11
-1.45535
1.37115
-7.84275e-11
-1.38818
1.40158
-8.8851e-11
-1.31443
1.43091
-9.28072e-11
-1.23437
1.45893
-1.01607e-10
-1.1483
1.48545
-1.04493e-10
-1.05662
1.51029
-1.11503e-10
-0.959764
1.53327
-1.13399e-10
-0.858195
1.55424
-1.18574e-10
-0.752421
1.57306
-1.19429e-10
-0.642969
1.58962
-1.22484e-10
-0.53038
1.6038
-1.22164e-10
-0.415212
1.61553
-1.23802e-10
-0.298027
1.62473
-1.25147e-10
-0.179397
1.63135
-1.2356e-10
-0.0598958
1.63534
-1.04537e-10
0.0598962
1.63667
-1.39534e-11
0.179397
1.63534
-1.47875e-10
0.298028
1.63135
-1.37582e-10
0.415212
1.62473
-3.31672e-10
1.61553
-4.17564e-10