/*--------------------------------*- C++ -*----------------------------------*\
| =========                 |                                                 |
| \\      /  F ield         | OpenFOAM: The Open Source CFD Toolbox           |
|  \\    /   O peration     | Version:  2306                                  |
|   \\  /    A nd           | Website:  www.openfoam.com                      |
|    \\/     M anipulation  |                                                 |
\*---------------------------------------------------------------------------*/
FoamFile
{
    version     2.0;
    format      ascii;
    arch        "LSB;label=32;scalar=64";
    class       volVectorField;
    location    "87.5";
    object      U;
}
// * * * * * * * * * * * * * * * * * * * * * * * * * * * * * * * * * * * * * //

dimensions      [0 1 -1 0 0 0 0];

internalField   nonuniform List<vector> 
14400
(
(-0.00181453 3.2395e-05 -2.20754e-12)
(-0.00218023 3.2238e-05 -2.23669e-12)
(-0.00254735 3.20031e-05 -1.49487e-12)
(-0.00291607 3.16892e-05 -1.60839e-12)
(-0.00328659 3.12948e-05 -1.59849e-12)
(-0.00365911 3.08177e-05 -1.73951e-12)
(-0.00403384 3.02548e-05 -1.75964e-12)
(-0.00441099 2.96014e-05 -1.92008e-12)
(-0.00479078 2.88514e-05 -1.94235e-12)
(-0.00517342 2.79969e-05 -2.11338e-12)
(-0.00555914 2.70286e-05 -2.13375e-12)
(-0.00594816 2.59351e-05 -2.31837e-12)
(-0.0063407 2.47032e-05 -2.33948e-12)
(-0.00673701 2.33172e-05 -2.54169e-12)
(-0.0071373 2.17591e-05 -2.56549e-12)
(-0.00754183 2.0008e-05 -2.7886e-12)
(-0.0079508 1.80397e-05 -2.81622e-12)
(-0.00836447 1.58261e-05 -3.0634e-12)
(-0.00878305 1.33347e-05 -3.09539e-12)
(-0.00920676 1.05278e-05 -3.37001e-12)
(-0.00963583 7.36131e-06 -3.40648e-12)
(-0.0100705 3.78386e-06 -3.7122e-12)
(-0.0105108 -2.64804e-07 -3.75265e-12)
(-0.0109571 -4.85559e-06 -4.0934e-12)
(-0.0114095 -1.00722e-05 -4.13669e-12)
(-0.011868 -1.6014e-05 -4.51672e-12)
(-0.0123328 -2.2799e-05 -4.56145e-12)
(-0.0128038 -3.05686e-05 -4.986e-12)
(-0.0132811 -3.94922e-05 -5.0322e-12)
(-0.0137644 -4.97737e-05 -5.50881e-12)
(-0.0142535 -6.16595e-05 -5.56072e-12)
(-0.0147481 -7.54479e-05 -6.09978e-12)
(-0.0152477 -9.15009e-05 -6.16626e-12)
(-0.0157514 -0.000110258 -6.77559e-12)
(-0.0162585 -0.000132253 -6.85742e-12)
(-0.0167676 -0.00015813 -7.5234e-12)
(-0.0172773 -0.000188667 -7.57464e-12)
(-0.0177858 -0.00022479 -8.23652e-12)
(-0.018291 -0.000267585 -8.118e-12)
(-0.0187904 -0.000318296 -8.68959e-12)
(-0.0192817 -0.000378288 -8.23311e-12)
(-0.0197625 -0.000448961 -8.77133e-12)
(-0.0202315 -0.000531567 -8.18926e-12)
(-0.0206893 -0.000626888 -9.17986e-12)
(-0.0211402 -0.000734689 -9.85726e-12)
(-0.0215948 -0.000852864 -1.21554e-11)
(-0.0220744 -0.000976142 -1.69087e-11)
(-0.0226169 -0.00109422 -2.07262e-11)
(-0.0232845 -0.00118915 -3.16713e-11)
(-0.0241746 -0.0012316 -3.54831e-11)
(-0.0254318 -0.00117539 -4.98498e-11)
(-0.0272607 -0.000950753 -5.25778e-11)
(-0.0299441 -0.000463478 -6.2168e-11)
(-0.0338861 0.000406536 -7.26874e-11)
(-0.0396111 0.00198562 -9.67332e-11)
(-0.0473528 0.00515465 -1.36667e-10)
(-0.0569347 0.00945158 -1.64926e-10)
(-0.0689464 0.0111749 -2.25716e-10)
(-0.077985 0.0058815 -4.12638e-10)
(-0.0811278 -0.0251811 -1.37686e-10)
(-0.218009 0.014312 -1.88125e-11)
(-0.156072 0.3406 4.99831e-11)
(-0.123972 0.454498 3.13521e-10)
(-0.102234 0.490386 2.97154e-10)
(-0.090656 0.499705 3.27674e-10)
(-0.0810441 0.500895 2.97995e-10)
(-0.0718275 0.499907 2.74976e-10)
(-0.0628894 0.498642 2.31695e-10)
(-0.0542159 0.497633 2.01451e-10)
(-0.0458041 0.496949 1.67769e-10)
(-0.0376566 0.496529 1.53829e-10)
(-0.0297626 0.496291 1.33295e-10)
(-0.0220951 0.49617 1.34636e-10)
(-0.0146145 0.49612 1.1706e-10)
(-0.00727334 0.496109 1.30487e-10)
(3.37692e-08 0.49611 1.03255e-10)
(0.00727341 0.496109 1.38047e-10)
(0.0146146 0.49612 -7.46537e-12)
(0.0220951 0.49617 4.17444e-10)
(0.0297627 0.496291 -9.09912e-11)
(-0.00511439 0.00195932 -2.03997e-12)
(-0.00614572 0.00196662 -2.31767e-12)
(-0.00718159 0.00197508 -1.60514e-12)
(-0.00822274 0.00198469 -1.70251e-12)
(-0.00926993 0.00199549 -1.75187e-12)
(-0.0103239 0.0020075 -1.85409e-12)
(-0.0113855 0.00202073 -1.9364e-12)
(-0.0124555 0.00203522 -2.05197e-12)
(-0.0135346 0.002051 -2.14083e-12)
(-0.0146239 0.00206809 -2.2631e-12)
(-0.0157241 0.00208652 -2.3549e-12)
(-0.0168362 0.00210632 -2.48688e-12)
(-0.0179611 0.00212752 -2.58476e-12)
(-0.0190998 0.00215015 -2.73011e-12)
(-0.0202533 0.00217423 -2.83668e-12)
(-0.0214226 0.00219978 -2.99824e-12)
(-0.022609 0.00222683 -3.11536e-12)
(-0.0238135 0.0022554 -3.2956e-12)
(-0.0250373 0.00228549 -3.42476e-12)
(-0.0262818 0.00231711 -3.62614e-12)
(-0.0275482 0.00235027 -3.76855e-12)
(-0.028838 0.00238494 -3.99348e-12)
(-0.0301526 0.00242109 -4.15002e-12)
(-0.0314935 0.00245869 -4.40073e-12)
(-0.0328624 0.00249766 -4.57188e-12)
(-0.0342611 0.0025379 -4.85034e-12)
(-0.0356913 0.00257929 -5.03672e-12)
(-0.0371549 0.00262164 -5.3453e-12)
(-0.0386541 0.00266472 -5.54957e-12)
(-0.0401911 0.00270826 -5.8927e-12)
(-0.0417681 0.00275188 -6.12305e-12)
(-0.0433877 0.00279514 -6.50885e-12)
(-0.0450526 0.00283751 -6.78032e-12)
(-0.0467659 0.00287836 -7.21652e-12)
(-0.0485308 0.00291696 -7.538e-12)
(-0.0503511 0.00295255 -8.0118e-12)
(-0.0522309 0.00298434 -8.34107e-12)
(-0.0541752 0.0030117 -8.78289e-12)
(-0.0561898 0.00303435 -8.96218e-12)
(-0.0582821 0.00305284 -9.2435e-12)
(-0.0604611 0.00306918 -9.0439e-12)
(-0.0627388 0.00308808 -9.12933e-12)
(-0.0651315 0.00311872 -8.69056e-12)
(-0.0676613 0.00317757 -8.98514e-12)
(-0.0703594 0.00329238 -9.76278e-12)
(-0.0732697 0.0035078 -1.12751e-11)
(-0.0764543 0.00389259 -1.65119e-11)
(-0.0800008 0.00454843 -2.01633e-11)
(-0.08403 0.00561935 -3.26942e-11)
(-0.0887051 0.00730048 -3.82931e-11)
(-0.094238 0.0098433 -5.55656e-11)
(-0.100912 0.0135522 -6.47114e-11)
(-0.109126 0.0187563 -8.21604e-11)
(-0.119285 0.0256676 -1.03452e-10)
(-0.13157 0.0339731 -1.46564e-10)
(-0.146207 0.0429419 -2.0539e-10)
(-0.164562 0.053364 -2.82457e-10)
(-0.189756 0.0721585 -3.77092e-10)
(-0.223574 0.11851 -3.60357e-10)
(-0.264655 0.202896 -3.04727e-10)
(-0.309605 0.272148 4.80963e-11)
(-0.312702 0.343791 2.24788e-10)
(-0.281217 0.391751 4.05657e-10)
(-0.245038 0.418218 4.29859e-10)
(-0.212335 0.432943 4.46894e-10)
(-0.183441 0.441711 4.02905e-10)
(-0.157911 0.447493 3.49578e-10)
(-0.135153 0.45173 2.99541e-10)
(-0.114569 0.455074 2.4477e-10)
(-0.0956583 0.457811 2.14881e-10)
(-0.0780253 0.460063 1.82389e-10)
(-0.0613616 0.461887 1.70977e-10)
(-0.0454203 0.463314 1.55617e-10)
(-0.0299983 0.464355 1.48921e-10)
(-0.0149272 0.465004 1.4269e-10)
(-3.2662e-08 0.46523 1.32084e-10)
(0.0149272 0.465004 1.35072e-10)
(0.0299982 0.464355 4.00011e-11)
(0.0454202 0.463314 3.17094e-10)
(0.0613615 0.461887 4.87619e-11)
(-0.00723053 0.00547111 -2.77608e-12)
(-0.00868873 0.00549301 -2.4785e-12)
(-0.0101536 0.00551873 -1.82626e-12)
(-0.0116262 0.00554833 -1.86862e-12)
(-0.0131077 0.00558186 -1.93577e-12)
(-0.0145994 0.00561941 -2.01549e-12)
(-0.0161024 0.00566108 -2.12015e-12)
(-0.017618 0.00570697 -2.21588e-12)
(-0.0191474 0.00575722 -2.33031e-12)
(-0.0206921 0.00581194 -2.43226e-12)
(-0.0222533 0.00587129 -2.55376e-12)
(-0.0238325 0.00593543 -2.66461e-12)
(-0.0254312 0.00600452 -2.79651e-12)
(-0.0270509 0.00607874 -2.9196e-12)
(-0.0286933 0.0061583 -3.06462e-12)
(-0.0303602 0.00624341 -3.20271e-12)
(-0.0320533 0.00633429 -3.36306e-12)
(-0.0337744 0.00643119 -3.51874e-12)
(-0.0355258 0.00653437 -3.69646e-12)
(-0.0373094 0.0066441 -3.87242e-12)
(-0.0391275 0.00676069 -4.06954e-12)
(-0.0409826 0.00688445 -4.26852e-12)
(-0.0428773 0.00701573 -4.48695e-12)
(-0.0448143 0.00715487 -4.71163e-12)
(-0.0467966 0.00730227 -4.95323e-12)
(-0.0488275 0.00745833 -5.20621e-12)
(-0.0509103 0.0076235 -5.4733e-12)
(-0.0530489 0.00779824 -5.75769e-12)
(-0.0552474 0.00798307 -6.05499e-12)
(-0.0575103 0.00817854 -6.37615e-12)
(-0.0598425 0.00838529 -6.71457e-12)
(-0.0622495 0.00860403 -7.0822e-12)
(-0.0647374 0.0088356 -7.48163e-12)
(-0.0673128 0.00908103 -7.9075e-12)
(-0.0699835 0.00934161 -8.38772e-12)
(-0.072758 0.00961905 -8.86886e-12)
(-0.075646 0.00991573 -9.4088e-12)
(-0.0786589 0.010235 -9.89128e-12)
(-0.0818096 0.0105816 -1.03548e-11)
(-0.0851131 0.0109629 -1.07126e-11)
(-0.0885872 0.0113898 -1.08319e-11)
(-0.0922527 0.0118789 -1.09577e-11)
(-0.0961347 0.0124555 -1.06204e-11)
(-0.100263 0.0131575 -1.06841e-11)
(-0.104673 0.0140418 -1.06978e-11)
(-0.109408 0.0151911 -1.13208e-11)
(-0.114519 0.0167238 -1.39984e-11)
(-0.120067 0.018803 -1.5889e-11)
(-0.126124 0.0216465 -2.37391e-11)
(-0.132771 0.0255306 -2.70723e-11)
(-0.1401 0.0307875 -3.93688e-11)
(-0.148221 0.0377868 -4.52079e-11)
(-0.157262 0.0469026 -5.90198e-11)
(-0.167309 0.0584966 -7.05359e-11)
(-0.178441 0.0730718 -8.98596e-11)
(-0.190941 0.0915883 -1.1373e-10)
(-0.205132 0.115207 -1.35912e-10)
(-0.220514 0.144424 -1.67998e-10)
(-0.234581 0.17834 -1.3761e-10)
(-0.243853 0.214069 -1.18502e-10)
(-0.246608 0.247883 -1.76252e-11)
(-0.240312 0.280904 3.05326e-11)
(-0.225697 0.310295 1.13456e-10)
(-0.207131 0.334745 1.40369e-10)
(-0.187548 0.354234 1.60809e-10)
(-0.168137 0.369482 1.57001e-10)
(-0.149297 0.381403 1.40495e-10)
(-0.131111 0.390781 1.2839e-10)
(-0.113525 0.398206 1.07805e-10)
(-0.0964485 0.404101 9.8971e-11)
(-0.0797863 0.408766 8.4726e-11)
(-0.0634525 0.412406 8.12392e-11)
(-0.0473711 0.415163 7.20354e-11)
(-0.0314762 0.417124 6.87029e-11)
(-0.0157205 0.418321 6.09679e-11)
(1.2524e-08 0.418732 5.5393e-11)
(0.0157205 0.418321 4.80811e-11)
(0.0314762 0.417124 1.39136e-11)
(0.0473711 0.415163 1.05741e-10)
(0.0634526 0.412406 1.85225e-11)
(-0.00823428 0.00973355 -1.44122e-12)
(-0.0098948 0.00977331 -1.82998e-12)
(-0.0115629 0.00982028 -1.28184e-12)
(-0.0132398 0.00987455 -1.37044e-12)
(-0.014927 0.00993627 -1.43475e-12)
(-0.0166257 0.0100056 -1.49817e-12)
(-0.0183375 0.0100827 -1.58513e-12)
(-0.0200638 0.0101679 -1.65317e-12)
(-0.021806 0.0102613 -1.74827e-12)
(-0.0235657 0.0103632 -1.81887e-12)
(-0.0253446 0.0104741 -1.91998e-12)
(-0.0271443 0.0105941 -1.99535e-12)
(-0.0289666 0.0107236 -2.10454e-12)
(-0.0308133 0.0108632 -2.18682e-12)
(-0.0326863 0.0110131 -2.30577e-12)
(-0.0345878 0.011174 -2.39652e-12)
(-0.0365197 0.0113462 -2.52655e-12)
(-0.0384844 0.0115305 -2.62715e-12)
(-0.0404844 0.0117274 -2.76937e-12)
(-0.0425221 0.0119377 -2.88105e-12)
(-0.0446003 0.012162 -3.03639e-12)
(-0.0467219 0.0124012 -3.16015e-12)
(-0.0488901 0.0126563 -3.3292e-12)
(-0.0511083 0.0129282 -3.46552e-12)
(-0.05338 0.0132181 -3.64847e-12)
(-0.0557093 0.0135271 -3.79715e-12)
(-0.0581005 0.0138567 -3.9941e-12)
(-0.0605582 0.0142084 -4.15454e-12)
(-0.0630875 0.0145838 -4.36691e-12)
(-0.0656941 0.014985 -4.53924e-12)
(-0.0683841 0.0154142 -4.77289e-12)
(-0.0711645 0.0158739 -4.95967e-12)
(-0.0740427 0.0163671 -5.22757e-12)
(-0.0770273 0.0168974 -5.43236e-12)
(-0.0801276 0.0174689 -5.74834e-12)
(-0.0833543 0.0180867 -5.96324e-12)
(-0.0867193 0.0187573 -6.30972e-12)
(-0.0902358 0.0194885 -6.48634e-12)
(-0.0939189 0.0202905 -6.74936e-12)
(-0.0977854 0.0211767 -6.77636e-12)
(-0.101854 0.0221649 -6.70859e-12)
(-0.106146 0.0232792 -6.46803e-12)
(-0.110683 0.0245527 -5.86602e-12)
(-0.115491 0.0260312 -5.42293e-12)
(-0.120594 0.027778 -4.68323e-12)
(-0.126015 0.02988 -4.46446e-12)
(-0.131777 0.032455 -5.11641e-12)
(-0.137894 0.0356592 -5.75799e-12)
(-0.144369 0.0396937 -9.75097e-12)
(-0.151189 0.0448084 -1.16259e-11)
(-0.158319 0.0512991 -1.90001e-11)
(-0.165698 0.0594979 -2.21969e-11)
(-0.17324 0.0697583 -3.02501e-11)
(-0.180826 0.0824515 -3.49734e-11)
(-0.188291 0.0979498 -4.06626e-11)
(-0.195338 0.116445 -4.64209e-11)
(-0.201485 0.13775 -4.50023e-11)
(-0.206042 0.161335 -4.9471e-11)
(-0.208141 0.18644 -3.5592e-11)
(-0.207041 0.211993 -3.40971e-11)
(-0.202593 0.236746 -7.26667e-12)
(-0.195051 0.259934 9.40228e-14)
(-0.184855 0.280937 2.35788e-11)
(-0.172678 0.299445 2.78214e-11)
(-0.159219 0.315345 3.80474e-11)
(-0.145032 0.328728 3.71302e-11)
(-0.130489 0.339843 3.73131e-11)
(-0.115815 0.348997 3.45952e-11)
(-0.101132 0.356487 3.14139e-11)
(-0.0864994 0.362571 2.97344e-11)
(-0.0719406 0.367458 2.64086e-11)
(-0.0574573 0.371306 2.61366e-11)
(-0.0430385 0.374232 2.24887e-11)
(-0.0286689 0.376308 2.2342e-11)
(-0.0143412 0.377567 1.73858e-11)
(5.40448e-08 0.377994 1.72354e-11)
(0.0143413 0.377567 1.08778e-11)
(0.028669 0.376308 4.10402e-12)
(0.0430387 0.374232 2.26412e-11)
(0.0574574 0.371306 3.97883e-12)
(-0.0085551 0.0143049 -2.89842e-12)
(-0.01028 0.0143636 -2.41742e-12)
(-0.0120125 0.014433 -1.81993e-12)
(-0.0137539 0.0145135 -1.83953e-12)
(-0.0155058 0.0146052 -1.89923e-12)
(-0.0172695 0.0147083 -1.96199e-12)
(-0.0190463 0.0148232 -2.05529e-12)
(-0.0208378 0.0149502 -2.13506e-12)
(-0.0226456 0.0150897 -2.23859e-12)
(-0.0244712 0.0152421 -2.32608e-12)
(-0.0263162 0.0154079 -2.43806e-12)
(-0.0281824 0.0155877 -2.53486e-12)
(-0.0300716 0.015782 -2.65777e-12)
(-0.0319855 0.0159914 -2.76598e-12)
(-0.0339263 0.0162168 -2.90179e-12)
(-0.0358958 0.0164588 -3.02343e-12)
(-0.0378964 0.0167184 -3.17403e-12)
(-0.0399303 0.0169964 -3.31125e-12)
(-0.0419999 0.017294 -3.47862e-12)
(-0.0441078 0.0176123 -3.63377e-12)
(-0.0462568 0.0179525 -3.81995e-12)
(-0.0484499 0.018316 -3.99547e-12)
(-0.0506901 0.0187044 -4.20251e-12)
(-0.052981 0.0191194 -4.40074e-12)
(-0.055326 0.0195629 -4.63056e-12)
(-0.0577292 0.020037 -4.85359e-12)
(-0.0601947 0.0205441 -5.10819e-12)
(-0.0627274 0.0210869 -5.35788e-12)
(-0.065332 0.0216683 -5.64009e-12)
(-0.0680142 0.0222918 -5.91879e-12)
(-0.0707798 0.0229612 -6.23411e-12)
(-0.0736356 0.023681 -6.54565e-12)
(-0.0765885 0.0244563 -6.90399e-12)
(-0.0796466 0.0252931 -7.25304e-12)
(-0.0828184 0.0261981 -7.66504e-12)
(-0.0861136 0.0271797 -8.04991e-12)
(-0.0895426 0.0282475 -8.50664e-12)
(-0.0931169 0.0294132 -8.90164e-12)
(-0.0968489 0.0306908 -9.33154e-12)
(-0.100752 0.0320976 -9.67127e-12)
(-0.104841 0.0336551 -9.90763e-12)
(-0.109131 0.0353903 -1.01148e-11)
(-0.113636 0.0373373 -9.98358e-12)
(-0.118371 0.0395401 -1.00737e-11)
(-0.123348 0.042055 -9.70861e-12)
(-0.128573 0.0449546 -9.89495e-12)
(-0.134048 0.0483318 -1.00726e-11)
(-0.13976 0.0523035 -1.06808e-11)
(-0.145679 0.0570143 -1.24876e-11)
(-0.151753 0.0626374 -1.36387e-11)
(-0.157897 0.0693731 -1.71905e-11)
(-0.163992 0.0774418 -1.85941e-11)
(-0.169875 0.0870741 -2.21909e-11)
(-0.175339 0.0984945 -2.33101e-11)
(-0.180119 0.11188 -2.44383e-11)
(-0.183893 0.12727 -2.47318e-11)
(-0.186319 0.144469 -2.14555e-11)
(-0.187081 0.163031 -2.02568e-11)
(-0.18594 0.18235 -1.26401e-11)
(-0.182769 0.20177 -1.02286e-11)
(-0.177607 0.220676 -9.43519e-13)
(-0.170617 0.238604 1.42385e-12)
(-0.16203 0.255198 8.96915e-12)
(-0.152117 0.270222 9.97957e-12)
(-0.141166 0.283559 1.40435e-11)
(-0.129449 0.295193 1.35877e-11)
(-0.117196 0.305196 1.48558e-11)
(-0.104588 0.313692 1.38381e-11)
(-0.0917531 0.320825 1.37861e-11)
(-0.0787788 0.326739 1.30004e-11)
(-0.0657226 0.331561 1.241e-11)
(-0.0526193 0.335397 1.19924e-11)
(-0.0394878 0.338327 1.084e-11)
(-0.0263386 0.340404 1.04174e-11)
(-0.0131854 0.341655 8.59952e-12)
(7.00151e-08 0.342076 8.32409e-12)
(0.0131855 0.341655 4.76735e-12)
(0.0263388 0.340404 8.62721e-12)
(0.039488 0.338327 -4.45876e-12)
(0.0526194 0.335397 1.80785e-11)
(-0.0085437 0.0189179 -9.59875e-13)
(-0.0102656 0.018995 -1.27138e-12)
(-0.0119948 0.0190864 -8.81637e-13)
(-0.0137325 0.0191923 -9.5737e-13)
(-0.0154801 0.0193131 -1.00887e-12)
(-0.0172388 0.019449 -1.05226e-12)
(-0.0190101 0.0196006 -1.11549e-12)
(-0.0207953 0.0197682 -1.15895e-12)
(-0.0225959 0.0199524 -1.22729e-12)
(-0.0244134 0.0201538 -1.2715e-12)
(-0.0262492 0.0203729 -1.34402e-12)
(-0.0281051 0.0206106 -1.39042e-12)
(-0.0299826 0.0208676 -1.46824e-12)
(-0.0318836 0.0211447 -1.51778e-12)
(-0.0338097 0.021443 -1.60171e-12)
(-0.0357629 0.0217634 -1.65504e-12)
(-0.0377453 0.0221073 -1.74581e-12)
(-0.0397589 0.0224757 -1.8035e-12)
(-0.0418058 0.0228702 -1.90172e-12)
(-0.0438886 0.0232922 -1.96419e-12)
(-0.0460096 0.0237436 -2.07024e-12)
(-0.0481714 0.0242261 -2.13755e-12)
(-0.0503769 0.024742 -2.25136e-12)
(-0.052629 0.0252934 -2.3229e-12)
(-0.0549309 0.025883 -2.44376e-12)
(-0.057286 0.0265135 -2.51792e-12)
(-0.059698 0.0271883 -2.64436e-12)
(-0.0621706 0.0279109 -2.71835e-12)
(-0.0647082 0.0286853 -2.84835e-12)
(-0.0673151 0.0295159 -2.91838e-12)
(-0.0699962 0.030408 -3.05028e-12)
(-0.0727567 0.0313672 -3.11207e-12)
(-0.075602 0.0324001 -3.24554e-12)
(-0.0785382 0.0335142 -3.29442e-12)
(-0.0815715 0.0347181 -3.4284e-12)
(-0.0847088 0.0360218 -3.45586e-12)
(-0.0879571 0.0374366 -3.57707e-12)
(-0.0913239 0.038976 -3.56097e-12)
(-0.094817 0.0406555 -3.61846e-12)
(-0.098444 0.0424934 -3.51168e-12)
(-0.102213 0.0445116 -3.39454e-12)
(-0.10613 0.0467357 -3.13232e-12)
(-0.110202 0.049197 -2.70883e-12)
(-0.114432 0.0519326 -2.25644e-12)
(-0.118821 0.0549877 -1.53697e-12)
(-0.123364 0.0584171 -9.53584e-13)
(-0.128048 0.0622864 -2.87501e-13)
(-0.13285 0.0666741 2.80032e-13)
(-0.137732 0.0716723 3.12019e-13)
(-0.142637 0.077386 7.53917e-13)
(-0.147483 0.0839306 -5.36134e-14)
(-0.152162 0.0914267 3.24399e-13)
(-0.156531 0.0999907 -6.04103e-13)
(-0.160415 0.109722 -7.31016e-14)
(-0.163602 0.120686 1.66289e-13)
(-0.165857 0.13288 1.05631e-12)
(-0.166947 0.146202 3.33765e-12)
(-0.166679 0.160429 4.65805e-12)
(-0.164928 0.175228 8.66132e-12)
(-0.161655 0.190205 1.01746e-11)
(-0.156903 0.204964 1.44783e-11)
(-0.150778 0.219165 1.55903e-11)
(-0.143425 0.232537 1.88095e-11)
(-0.135011 0.244884 1.91598e-11)
(-0.125715 0.256081 2.0878e-11)
(-0.115708 0.266075 2.06056e-11)
(-0.105148 0.274864 2.11941e-11)
(-0.0941664 0.282489 2.06685e-11)
(-0.0828723 0.289014 2.06713e-11)
(-0.0713494 0.294513 2.02145e-11)
(-0.0596609 0.299055 1.99964e-11)
(-0.0478534 0.302702 1.97179e-11)
(-0.0359603 0.305504 1.93211e-11)
(-0.0240079 0.307493 1.91667e-11)
(-0.0120238 0.308688 1.84737e-11)
(6.41721e-08 0.309088 1.82081e-11)
(0.0120239 0.308688 1.92017e-11)
(0.024008 0.307493 7.04081e-12)
(0.0359604 0.305504 4.47079e-11)
(0.0478535 0.302702 -2.27708e-13)
(-0.00838379 0.0234712 -2.03301e-12)
(-0.0100726 0.0235653 -1.50056e-12)
(-0.0117679 0.0236769 -1.17409e-12)
(-0.0134711 0.0238064 -1.17852e-12)
(-0.0151832 0.0239541 -1.22664e-12)
(-0.0169054 0.0241205 -1.26825e-12)
(-0.018639 0.0243059 -1.33405e-12)
(-0.0203851 0.0245111 -1.38559e-12)
(-0.0221452 0.0247365 -1.45591e-12)
(-0.0239205 0.0249829 -1.5111e-12)
(-0.0257124 0.0252511 -1.58579e-12)
(-0.0275222 0.025542 -1.64541e-12)
(-0.0293515 0.0258564 -1.72602e-12)
(-0.0312017 0.0261955 -1.79108e-12)
(-0.0330744 0.0265603 -1.87875e-12)
(-0.0349712 0.0269522 -1.9503e-12)
(-0.0368939 0.0273725 -2.04616e-12)
(-0.0388441 0.0278228 -2.12537e-12)
(-0.0408238 0.0283048 -2.23051e-12)
(-0.0428348 0.0288203 -2.31854e-12)
(-0.0448793 0.0293713 -2.43394e-12)
(-0.0469592 0.0299601 -2.53177e-12)
(-0.0490769 0.0305892 -2.65805e-12)
(-0.0512347 0.0312612 -2.76623e-12)
(-0.053435 0.0319793 -2.90346e-12)
(-0.0556804 0.0327466 -3.02184e-12)
(-0.0579736 0.033567 -3.16921e-12)
(-0.0603174 0.0344446 -3.29667e-12)
(-0.0627149 0.0353838 -3.4524e-12)
(-0.065169 0.0363898 -3.58675e-12)
(-0.0676831 0.0374684 -3.74818e-12)
(-0.0702604 0.0386259 -3.88635e-12)
(-0.0729045 0.0398694 -4.05021e-12)
(-0.0756188 0.041207 -4.18839e-12)
(-0.0784069 0.0426478 -4.35003e-12)
(-0.0812722 0.0442021 -4.48251e-12)
(-0.0842182 0.0458815 -4.63101e-12)
(-0.0872481 0.047699 -4.74538e-12)
(-0.0903646 0.0496698 -4.85116e-12)
(-0.09357 0.0518108 -4.92268e-12)
(-0.0968656 0.0541415 -4.929e-12)
(-0.100251 0.0566841 -4.92341e-12)
(-0.103725 0.059464 -4.75613e-12)
(-0.107283 0.0625104 -4.64468e-12)
(-0.110917 0.0658568 -4.278e-12)
(-0.114615 0.0695414 -4.06929e-12)
(-0.118357 0.0736076 -3.61011e-12)
(-0.122115 0.0781046 -3.35585e-12)
(-0.125854 0.0830864 -3.01579e-12)
(-0.129521 0.0886116 -2.75887e-12)
(-0.13305 0.0947407 -2.62702e-12)
(-0.136358 0.101532 -2.3398e-12)
(-0.139343 0.109037 -2.10732e-12)
(-0.141883 0.117292 -1.61364e-12)
(-0.14384 0.126306 -7.12089e-13)
(-0.145067 0.136052 1.02837e-13)
(-0.145418 0.146453 1.92921e-12)
(-0.144764 0.157381 3.0712e-12)
(-0.143015 0.168665 5.66359e-12)
(-0.140127 0.180094 6.94735e-12)
(-0.136104 0.191445 9.65935e-12)
(-0.130996 0.202502 1.08366e-11)
(-0.124886 0.213072 1.28904e-11)
(-0.117879 0.223 1.35681e-11)
(-0.110094 0.232171 1.49121e-11)
(-0.101648 0.240512 1.52282e-11)
(-0.0926573 0.247988 1.58983e-11)
(-0.0832243 0.25459 1.59712e-11)
(-0.0734392 0.260332 1.61989e-11)
(-0.0633776 0.265238 1.618e-11)
(-0.0531014 0.269338 1.61582e-11)
(-0.0426612 0.272659 1.61339e-11)
(-0.032098 0.275225 1.59777e-11)
(-0.0214474 0.277052 1.58455e-11)
(-0.0107456 0.278149 1.57062e-11)
(5.39319e-08 0.278516 1.54683e-11)
(0.0107457 0.278149 1.45909e-11)
(0.0214475 0.277052 1.46131e-11)
(0.0320981 0.275225 1.34953e-11)
(0.0426613 0.272659 2.55781e-11)
(-0.00815167 0.0279104 1.31184e-13)
(-0.00979254 0.0280197 -1.94623e-13)
(-0.0114392 0.0281495 -1.19769e-13)
(-0.0130927 0.0282999 -1.78329e-13)
(-0.0147539 0.0284716 -2.14699e-13)
(-0.016424 0.0286649 -2.33086e-13)
(-0.018104 0.0288804 -2.64642e-13)
(-0.0197949 0.0291186 -2.75075e-13)
(-0.0214979 0.0293805 -3.05963e-13)
(-0.023214 0.0296666 -3.12668e-13)
(-0.0249445 0.0299779 -3.43442e-13)
(-0.0266904 0.0303153 -3.47155e-13)
(-0.0284529 0.0306799 -3.77977e-13)
(-0.0302333 0.0310729 -3.78686e-13)
(-0.0320329 0.0314955 -4.09608e-13)
(-0.0338529 0.0319491 -4.07125e-13)
(-0.0356947 0.0324353 -4.38155e-13)
(-0.0375596 0.0329558 -4.32162e-13)
(-0.0394491 0.0335124 -4.63099e-13)
(-0.0413646 0.0341072 -4.53013e-13)
(-0.0433077 0.0347423 -4.83263e-13)
(-0.0452797 0.0354201 -4.67999e-13)
(-0.0472824 0.0361435 -4.96305e-13)
(-0.0493174 0.0369151 -4.73979e-13)
(-0.0513862 0.0377383 -4.9813e-13)
(-0.0534906 0.0386167 -4.65771e-13)
(-0.0556323 0.0395539 -4.82229e-13)
(-0.057813 0.0405545 -4.35453e-13)
(-0.0600343 0.0416229 -4.39114e-13)
(-0.0622979 0.0427645 -3.71997e-13)
(-0.0646055 0.043985 -3.55965e-13)
(-0.0669587 0.0452907 -2.61032e-13)
(-0.0693587 0.0466887 -2.16691e-13)
(-0.071807 0.0481866 -8.52892e-14)
(-0.0743043 0.0497932 -2.7743e-15)
(-0.0768515 0.0515179 1.72407e-13)
(-0.0794487 0.0533714 3.05194e-13)
(-0.0820955 0.0553653 5.43778e-13)
(-0.0847908 0.0575126 7.66936e-13)
(-0.0875326 0.0598276 1.09509e-12)
(-0.0903175 0.0623263 1.42314e-12)
(-0.0931407 0.0650262 1.84696e-12)
(-0.0959953 0.0679466 2.34443e-12)
(-0.098872 0.0711085 2.90428e-12)
(-0.101758 0.0745352 3.60832e-12)
(-0.104638 0.0782517 4.31746e-12)
(-0.10749 0.082285 5.21739e-12)
(-0.110288 0.0866634 6.05285e-12)
(-0.112998 0.0914165 7.05427e-12)
(-0.115577 0.0965737 8.08298e-12)
(-0.117975 0.102163 9.16322e-12)
(-0.120132 0.108208 1.01928e-11)
(-0.121976 0.114725 1.14083e-11)
(-0.123427 0.121721 1.25059e-11)
(-0.124399 0.129185 1.39509e-11)
(-0.124801 0.137087 1.50965e-11)
(-0.124545 0.14537 1.68281e-11)
(-0.123555 0.153954 1.7972e-11)
(-0.12177 0.162732 1.98742e-11)
(-0.119155 0.171583 2.09146e-11)
(-0.115699 0.180373 2.27192e-11)
(-0.111421 0.188971 2.35401e-11)
(-0.10636 0.197254 2.49832e-11)
(-0.100575 0.205115 2.55123e-11)
(-0.0941372 0.212467 2.64868e-11)
(-0.0871234 0.219244 2.67548e-11)
(-0.0796123 0.225402 2.72908e-11)
(-0.0716795 0.230916 2.73831e-11)
(-0.0633949 0.235772 2.76114e-11)
(-0.0548213 0.239969 2.76344e-11)
(-0.0460139 0.243509 2.77464e-11)
(-0.0370215 0.246398 2.78037e-11)
(-0.0278865 0.248643 2.791e-11)
(-0.0186482 0.250245 2.79896e-11)
(-0.00934671 0.251208 2.80719e-11)
(3.71136e-08 0.25153 2.77645e-11)
(0.00934678 0.251208 3.00804e-11)
(0.0186483 0.250245 1.29981e-11)
(0.0278866 0.248643 6.49387e-11)
(0.0370216 0.246398 8.26205e-12)
(-0.00787604 0.0322094 -9.51867e-13)
(-0.00946013 0.0323318 -4.66613e-13)
(-0.0110491 0.032477 -4.40722e-13)
(-0.0126438 0.0326454 -4.2643e-13)
(-0.014245 0.0328375 -4.57471e-13)
(-0.0158536 0.0330538 -4.72436e-13)
(-0.0174704 0.0332948 -5.05963e-13)
(-0.0190964 0.0335612 -5.24107e-13)
(-0.0207323 0.0338538 -5.57e-13)
(-0.0223792 0.0341735 -5.75169e-13)
(-0.0240378 0.034521 -6.08452e-13)
(-0.0257091 0.0348974 -6.26519e-13)
(-0.0273939 0.035304 -6.60684e-13)
(-0.0290934 0.0357417 -6.7856e-13)
(-0.0308083 0.0362121 -7.13889e-13)
(-0.0325396 0.0367166 -7.31745e-13)
(-0.0342883 0.0372567 -7.68422e-13)
(-0.0360554 0.0378342 -7.85996e-13)
(-0.0378417 0.038451 -8.23759e-13)
(-0.0396484 0.0391092 -8.40915e-13)
(-0.0414763 0.0398111 -8.79572e-13)
(-0.0433264 0.040559 -8.95879e-13)
(-0.0451996 0.0413557 -9.34423e-13)
(-0.0470969 0.042204 -9.48671e-13)
(-0.0490191 0.0431072 -9.85084e-13)
(-0.050967 0.0440688 -9.94957e-13)
(-0.0529415 0.0450924 -1.02565e-12)
(-0.0549431 0.0461822 -1.02765e-12)
(-0.0569724 0.0473428 -1.04774e-12)
(-0.05903 0.0485789 -1.03752e-12)
(-0.0611159 0.049896 -1.04042e-12)
(-0.0632302 0.0512998 -1.01166e-12)
(-0.0653727 0.0527968 -9.87805e-13)
(-0.0675429 0.0543938 -9.3264e-13)
(-0.0697396 0.0560984 -8.70367e-13)
(-0.0719614 0.0579188 -7.81069e-13)
(-0.0742063 0.0598638 -6.68559e-13)
(-0.0764713 0.061943 -5.29801e-13)
(-0.0787528 0.0641669 -3.28593e-13)
(-0.081046 0.0665467 -1.18841e-13)
(-0.0833448 0.0690944 1.75696e-13)
(-0.0856418 0.0718228 4.58313e-13)
(-0.0879276 0.0747455 8.988e-13)
(-0.0901907 0.0778768 1.28674e-12)
(-0.0924171 0.0812316 1.90552e-12)
(-0.0945902 0.0848252 2.40674e-12)
(-0.0966897 0.0886728 3.26486e-12)
(-0.0986915 0.0927897 3.89726e-12)
(-0.100567 0.0971901 4.92903e-12)
(-0.102284 0.101887 5.68694e-12)
(-0.103804 0.106889 6.90957e-12)
(-0.105083 0.112203 7.75649e-12)
(-0.106073 0.117829 9.14947e-12)
(-0.106722 0.12376 1.00585e-11)
(-0.106976 0.129977 1.16032e-11)
(-0.106779 0.136453 1.25418e-11)
(-0.106079 0.143146 1.41933e-11)
(-0.104829 0.150001 1.51198e-11)
(-0.102992 0.156951 1.67795e-11)
(-0.100545 0.16392 1.76406e-11)
(-0.0974792 0.170826 1.91711e-11)
(-0.0937993 0.177586 1.99127e-11)
(-0.0895258 0.184121 2.11887e-11)
(-0.0846909 0.190357 2.17773e-11)
(-0.0793364 0.196232 2.27298e-11)
(-0.07351 0.201695 2.31628e-11)
(-0.0672633 0.206703 2.37884e-11)
(-0.0606482 0.211229 2.40906e-11)
(-0.0537157 0.21525 2.44425e-11)
(-0.0465143 0.218752 2.46585e-11)
(-0.0390892 0.221727 2.48394e-11)
(-0.0314827 0.224168 2.50277e-11)
(-0.0237339 0.226072 2.51123e-11)
(-0.0158806 0.227435 2.51948e-11)
(-0.00796169 0.228255 2.5309e-11)
(2.611e-08 0.228529 2.50242e-11)
(0.00796174 0.228255 2.57339e-11)
(0.0158807 0.227435 1.67761e-11)
(0.023734 0.226072 4.27389e-11)
(0.0314827 0.224168 2.41604e-11)
(-0.00756915 0.0363482 1.02196e-12)
(-0.00909012 0.0364812 7.24633e-13)
(-0.010615 0.0366392 5.19544e-13)
(-0.0121444 0.0368223 4.83886e-13)
(-0.0136791 0.0370311 4.63596e-13)
(-0.0152196 0.0372661 4.68873e-13)
(-0.0167667 0.0375279 4.65693e-13)
(-0.0183209 0.0378171 4.83671e-13)
(-0.019883 0.0381346 4.85212e-13)
(-0.0214537 0.0384811 5.09285e-13)
(-0.0230335 0.0388576 5.13813e-13)
(-0.0246231 0.0392651 5.43731e-13)
(-0.0262232 0.0397047 5.51654e-13)
(-0.0278344 0.0401777 5.87718e-13)
(-0.0294573 0.0406854 5.98231e-13)
(-0.0310925 0.0412292 6.37862e-13)
(-0.0327407 0.0418107 6.51065e-13)
(-0.0344024 0.0424316 7.01119e-13)
(-0.0360781 0.0430938 7.23612e-13)
(-0.0377685 0.0437992 7.8482e-13)
(-0.0394738 0.0445502 8.12704e-13)
(-0.0411946 0.0453489 8.826e-13)
(-0.0429312 0.046198 9.16962e-13)
(-0.0446839 0.0471002 9.97603e-13)
(-0.0464529 0.0480585 1.04172e-12)
(-0.0482383 0.0490761 1.13935e-12)
(-0.05004 0.0501565 1.20326e-12)
(-0.051858 0.0513035 1.32578e-12)
(-0.0536917 0.0525209 1.41448e-12)
(-0.0555407 0.0538133 1.55994e-12)
(-0.0574041 0.0551853 1.67225e-12)
(-0.0592808 0.0566419 1.84713e-12)
(-0.0611693 0.0581886 1.99758e-12)
(-0.0630678 0.059831 2.2117e-12)
(-0.064974 0.0615755 2.41307e-12)
(-0.0668849 0.0634285 2.67523e-12)
(-0.0687971 0.0653971 2.94231e-12)
(-0.0707062 0.0674887 3.26226e-12)
(-0.0726072 0.0697111 3.61422e-12)
(-0.0744939 0.0720725 4.00281e-12)
(-0.076359 0.0745813 4.46061e-12)
(-0.0781942 0.0772463 4.92765e-12)
(-0.0799892 0.0800764 5.518e-12)
(-0.0817326 0.0830805 6.07489e-12)
(-0.0834108 0.0862674 6.82492e-12)
(-0.0850083 0.0896453 7.47864e-12)
(-0.0865072 0.0932222 8.41025e-12)
(-0.0878874 0.0970048 9.16025e-12)
(-0.089126 0.100998 1.02738e-11)
(-0.0901976 0.105206 1.11061e-11)
(-0.091074 0.109628 1.23848e-11)
(-0.0917247 0.114263 1.32715e-11)
(-0.092117 0.119102 1.46755e-11)
(-0.0922166 0.124135 1.5578e-11)
(-0.091989 0.129342 1.70507e-11)
(-0.0914001 0.134699 1.79255e-11)
(-0.0904184 0.140174 1.93963e-11)
(-0.0890162 0.145729 2.02008e-11)
(-0.0871718 0.151317 2.15898e-11)
(-0.0848708 0.15689 2.22876e-11)
(-0.082107 0.162393 2.35171e-11)
(-0.0788831 0.167774 2.40839e-11)
(-0.0752101 0.172978 2.5094e-11)
(-0.0711071 0.177957 2.55217e-11)
(-0.0665992 0.182665 2.62815e-11)
(-0.0617167 0.187063 2.65783e-11)
(-0.0564934 0.191118 2.70897e-11)
(-0.0509648 0.194802 2.72772e-11)
(-0.0451674 0.198093 2.75785e-11)
(-0.0391373 0.200975 2.76895e-11)
(-0.0329103 0.203434 2.78619e-11)
(-0.0265208 0.205459 2.79387e-11)
(-0.0200023 0.207043 2.80088e-11)
(-0.0133882 0.20818 2.79769e-11)
(-0.00671293 0.208864 2.79572e-11)
(1.67148e-08 0.209093 2.75061e-11)
(0.00671297 0.208864 2.91274e-11)
(0.0133882 0.20818 1.4178e-11)
(0.0200024 0.207043 5.84554e-11)
(0.0265208 0.205459 1.57457e-11)
(-0.00723843 0.0403125 6.25043e-14)
(-0.00869149 0.0404539 4.30677e-13)
(-0.0101475 0.0406217 2.03062e-13)
(-0.0116069 0.0408162 2.29184e-13)
(-0.0130702 0.0410379 2.14294e-13)
(-0.0145378 0.0412872 2.21417e-13)
(-0.0160103 0.0415649 2.16404e-13)
(-0.0174881 0.0418715 2.26232e-13)
(-0.0189716 0.0422078 2.25667e-13)
(-0.0204613 0.0425745 2.38319e-13)
(-0.0219576 0.0429727 2.40298e-13)
(-0.0234609 0.0434032 2.56351e-13)
(-0.0249715 0.0438672 2.61134e-13)
(-0.0264899 0.0443659 2.81268e-13)
(-0.0280164 0.0449004 2.89219e-13)
(-0.0295513 0.0454722 3.13875e-13)
(-0.0310948 0.0460828 3.25548e-13)
(-0.0326471 0.0467338 3.55727e-13)
(-0.0342085 0.0474269 3.72265e-13)
(-0.0357791 0.0481641 4.09002e-13)
(-0.0373589 0.0489472 4.31617e-13)
(-0.0389478 0.0497785 4.76317e-13)
(-0.0405457 0.0506602 5.07174e-13)
(-0.0421525 0.051595 5.62078e-13)
(-0.0437677 0.0525854 6.04421e-13)
(-0.0453909 0.0536342 6.7281e-13)
(-0.0470214 0.0547446 7.31488e-13)
(-0.0486584 0.0559197 8.17698e-13)
(-0.0503008 0.057163 8.98787e-13)
(-0.0519474 0.0584782 1.00771e-12)
(-0.0535966 0.0598692 1.11891e-12)