/*--------------------------------*- C++ -*----------------------------------*\
| =========                 |                                                 |
| \\      /  F ield         | OpenFOAM: The Open Source CFD Toolbox           |
|  \\    /   O peration     | Version:  2306                                  |
|   \\  /    A nd           | Website:  www.openfoam.com                      |
|    \\/     M anipulation  |                                                 |
\*---------------------------------------------------------------------------*/
FoamFile
{
    version     2.0;
    format      ascii;
    arch        "LSB;label=32;scalar=64";
    class       volScalarField;
    location    "50";
    object      p_rgh;
}
// * * * * * * * * * * * * * * * * * * * * * * * * * * * * * * * * * * * * * //

dimensions      [1 -1 -2 0 0 0 0];

internalField   nonuniform List<scalar> 
14400
(
-0.00831067
-0.00833685
-0.00836791
-0.00840392
-0.00844501
-0.0084913
-0.00854295
-0.00860013
-0.00866305
-0.00873194
-0.00880704
-0.00888864
-0.00897704
-0.00907259
-0.00917568
-0.00928672
-0.00940617
-0.00953456
-0.00967246
-0.00982048
-0.00997932
-0.0101498
-0.0103327
-0.010529
-0.0107397
-0.0109661
-0.0112094
-0.0114712
-0.0117531
-0.0120569
-0.0123847
-0.012739
-0.0131224
-0.0135379
-0.0139892
-0.0144802
-0.0150155
-0.0156005
-0.0162413
-0.0169451
-0.0177202
-0.0185762
-0.0195245
-0.0205782
-0.021753
-0.0230668
-0.0245407
-0.0261992
-0.0280708
-0.030188
-0.0325885
-0.0353138
-0.0384049
-0.0419149
-0.0460254
-0.051039
-0.0557601
-0.0543445
-0.0402809
-0.0192323
-0.0089542
-0.00328682
-0.00258833
-0.00212649
-0.00145467
-0.000819387
-0.000272631
0.000196912
0.000597716
0.000934575
0.00121163
0.00143259
0.00160055
0.001718
0.00178682
0.00180929
0.00178682
0.00171799
0.00160055
0.00143261
-0.00778942
-0.00781294
-0.00784082
-0.00787311
-0.00790994
-0.00795142
-0.00799768
-0.00804888
-0.0081052
-0.00816684
-0.00823402
-0.00830697
-0.00838597
-0.00847132
-0.00856335
-0.00866243
-0.00876895
-0.00888336
-0.00900615
-0.00913786
-0.00927908
-0.00943046
-0.00959275
-0.00976673
-0.00995331
-0.0101535
-0.0103683
-0.0105991
-0.0108471
-0.011114
-0.0114013
-0.0117112
-0.0120456
-0.0124072
-0.0127985
-0.0132228
-0.0136836
-0.0141848
-0.0147312
-0.0153278
-0.0159805
-0.0166961
-0.0174821
-0.0183473
-0.0193011
-0.0203545
-0.0215191
-0.0228077
-0.0242333
-0.0258081
-0.027542
-0.0294377
-0.0314883
-0.033685
-0.0359732
-0.0379201
-0.0383366
-0.0362527
-0.0326612
-0.0291909
-0.0240486
-0.0133143
-0.0083195
-0.0058874
-0.00421099
-0.00296314
-0.00202624
-0.00130702
-0.00074424
-0.000300489
4.7961e-05
0.000316631
0.000515713
0.000651444
0.000727184
0.00075034
0.000727181
0.00065144
0.000515713
0.000316654
-0.00732475
-0.00734564
-0.00737032
-0.00739889
-0.00743142
-0.00746802
-0.0075088
-0.0075539
-0.00760347
-0.00765766
-0.00771665
-0.00778066
-0.00784989
-0.0079246
-0.00800506
-0.00809155
-0.0081844
-0.00828397
-0.00839065
-0.00850485
-0.00862705
-0.00875777
-0.00889755
-0.00904703
-0.00920687
-0.00937782
-0.00956069
-0.00975638
-0.00996587
-0.0101903
-0.0104307
-0.0106886
-0.0109653
-0.0112625
-0.0115818
-0.0119253
-0.0122949
-0.0126931
-0.0131224
-0.0135855
-0.0140853
-0.014625
-0.015208
-0.0158378
-0.0165179
-0.0172517
-0.0180423
-0.0188921
-0.0198022
-0.0207711
-0.0217939
-0.022859
-0.0239459
-0.0250236
-0.0260361
-0.0268476
-0.0271734
-0.026527
-0.0243987
-0.0210858
-0.0175477
-0.0139933
-0.0115663
-0.009782
-0.00835984
-0.0072152
-0.00627902
-0.00550356
-0.00486072
-0.00433217
-0.0039048
-0.00356913
-0.0033187
-0.00315089
-0.00306652
-0.00304535
-0.00306652
-0.00315089
-0.00331869
-0.00356911
-0.00683466
-0.00685246
-0.00687344
-0.00689767
-0.00692522
-0.00695617
-0.0069906
-0.00702862
-0.00707033
-0.00711586
-0.00716534
-0.00721892
-0.00727676
-0.00733905
-0.00740596
-0.00747772
-0.00755456
-0.00763671
-0.00772446
-0.00781809
-0.00791792
-0.0080243
-0.0081376
-0.0082582
-0.00838656
-0.00852312
-0.00866839
-0.0088229
-0.00898724
-0.00916201
-0.00934786
-0.00954549
-0.00975563
-0.00997904
-0.0102165
-0.0104689
-0.010737
-0.0110216
-0.0113235
-0.0116435
-0.0119821
-0.0123399
-0.012717
-0.0131134
-0.0135284
-0.0139608
-0.0144087
-0.0148688
-0.0153365
-0.0158054
-0.0162666
-0.0167084
-0.0171153
-0.0174689
-0.0177485
-0.0179261
-0.0179411
-0.0176918
-0.0171151
-0.016251
-0.0152644
-0.0142584
-0.0132857
-0.012307
-0.0113853
-0.0105674
-0.00985528
-0.00924024
-0.00871478
-0.00827323
-0.00791139
-0.00762637
-0.00741678
-0.00728499
-0.00723539
-0.00723154
-0.0072354
-0.007285
-0.0074168
-0.00762637
-0.00636399
-0.00637867
-0.00639593
-0.00641582
-0.00643837
-0.00646365
-0.00649171
-0.00652262
-0.00655647
-0.00659331
-0.00663325
-0.00667639
-0.00672281
-0.00677265
-0.006826
-0.00688302
-0.00694382
-0.00700856
-0.00707739
-0.00715048
-0.00722799
-0.00731011
-0.00739703
-0.00748894
-0.00758604
-0.00768853
-0.00779662
-0.00791052
-0.00803043
-0.00815654
-0.00828903
-0.00842804
-0.0085737
-0.00872608
-0.0088852
-0.00905101
-0.00922333
-0.00940188
-0.00958621
-0.00977567
-0.00996935
-0.010166
-0.0103641
-0.0105616
-0.0107558
-0.0109435
-0.0111206
-0.0112821
-0.0114221
-0.0115333
-0.0116075
-0.0116348
-0.0116046
-0.0115054
-0.0113257
-0.0110548
-0.0106851
-0.0102215
-0.0096937
-0.00914436
-0.00861171
-0.00811286
-0.0076582
-0.00723936
-0.00685636
-0.00651001
-0.00619905
-0.00592265
-0.00568102
-0.00547503
-0.00530592
-0.00517507
-0.00508422
-0.00503769
-0.00504006
-0.00505375
-0.00504008
-0.00503773
-0.00508428
-0.00517513
-0.00590237
-0.00591393
-0.00592746
-0.005943
-0.00596058
-0.00598021
-0.00600195
-0.00602581
-0.00605185
-0.0060801
-0.00611061
-0.00614342
-0.00617859
-0.00621617
-0.00625621
-0.00629876
-0.00634389
-0.00639164
-0.00644208
-0.00649525
-0.00655121
-0.00661
-0.00667165
-0.00673621
-0.0068037
-0.0068741
-0.00694742
-0.00702362
-0.00710263
-0.00718434
-0.00726863
-0.00735528
-0.00744404
-0.00753458
-0.00762646
-0.00771915
-0.00781197
-0.00790412
-0.00799459
-0.00808217
-0.00816541
-0.00824258
-0.00831164
-0.00837019
-0.00841545
-0.00844421
-0.00845283
-0.00843724
-0.00839296
-0.00831517
-0.00819885
-0.00803904
-0.00783111
-0.00757127
-0.00725708
-0.00688802
-0.00646647
-0.0059998
-0.00550266
-0.00499596
-0.00450163
-0.00403628
-0.00361114
-0.00322893
-0.00288956
-0.00259146
-0.00233222
-0.00210937
-0.00192084
-0.00176513
-0.00164124
-0.00154856
-0.00148704
-0.00145881
-0.00146625
-0.00147894
-0.00146629
-0.00145889
-0.00148715
-0.00154869
-0.00545854
-0.00546711
-0.00547709
-0.00548849
-0.00550132
-0.00551559
-0.00553131
-0.0055485
-0.00556715
-0.00558728
-0.00560889
-0.005632
-0.0056566
-0.00568269
-0.00571029
-0.00573937
-0.00576993
-0.00580195
-0.00583541
-0.00587027
-0.00590648
-0.005944
-0.00598274
-0.00602262
-0.00606352
-0.00610529
-0.00614779
-0.00619079
-0.00623406
-0.0062773
-0.00632018
-0.00636228
-0.00640313
-0.00644217
-0.00647874
-0.00651209
-0.00654133
-0.00656545
-0.0065833
-0.00659356
-0.00659472
-0.00658509
-0.0065628
-0.00652575
-0.00647167
-0.0063981
-0.00630241
-0.0061819
-0.00603384
-0.00585559
-0.00564478
-0.00539949
-0.00511854
-0.00480176
-0.00445041
-0.00406746
-0.00365793
-0.00322913
-0.00279062
-0.00235344
-0.00192862
-0.00152542
-0.00115067
-0.000808213
-0.000499943
-0.000226276
1.33918e-05
0.000220199
0.000395431
0.000540293
0.000655818
0.000742892
0.000802051
0.000832259
0.00083237
0.000824944
0.000832323
0.000832166
0.000801917
0.000742733
-0.00503305
-0.00503883
-0.00504549
-0.00505304
-0.00506146
-0.00507075
-0.00508091
-0.00509191
-0.00510375
-0.00511641
-0.00512985
-0.00514407
-0.00515902
-0.00517467
-0.00519097
-0.00520788
-0.00522533
-0.00524326
-0.00526158
-0.00528019
-0.005299
-0.00531786
-0.00533665
-0.00535517
-0.00537325
-0.00539067
-0.00540716
-0.00542243
-0.00543617
-0.00544798
-0.00545744
-0.00546407
-0.00546732
-0.00546657
-0.00546112
-0.00545021
-0.00543297
-0.00540843
-0.00537553
-0.00533312
-0.00527992
-0.00521457
-0.00513561
-0.00504149
-0.00493061
-0.00480135
-0.00465209
-0.00448128
-0.00428754
-0.00406971
-0.00382699
-0.00355909
-0.00326633
-0.00294984
-0.00261169
-0.00225499
-0.001884
-0.00150404
-0.00112137
-0.000742712
-0.000374684
-2.31497e-05
0.00030717
0.000612893
0.000891824
0.00114277
0.00136531
0.00155955
0.00172591
0.00186495
0.00197729
0.00206355
0.00212424
0.0021588
0.00216666
0.00216398
0.00216662
0.00215872
0.00212413
0.00206341
-0.0046283
-0.00463154
-0.00463519
-0.00463924
-0.00464368
-0.00464849
-0.00465363
-0.00465909
-0.00466483
-0.0046708
-0.00467697
-0.00468329
-0.0046897
-0.00469614
-0.00470253
-0.00470878
-0.00471482
-0.00472053
-0.0047258
-0.00473049
-0.00473445
-0.00473752
-0.00473952
-0.00474022
-0.00473941
-0.00473681
-0.00473213
-0.00472506
-0.00471524
-0.00470225
-0.00468567
-0.00466501
-0.00463973
-0.00460924
-0.00457291
-0.00453004
-0.00447988
-0.0044216
-0.00435436
-0.00427723
-0.00418924
-0.00408941
-0.0039767
-0.0038501
-0.00370862
-0.00355129
-0.00337726
-0.00318581
-0.00297643
-0.00274882
-0.00250306
-0.00223959
-0.00195933
-0.00166374
-0.00135488
-0.00103539
-0.000708522
-0.00037803
-4.80608e-05
0.000277077
0.000593169
0.000896354
0.00118332
0.0014514
0.00169861
0.00192354
0.00212532
0.00230348
0.00245783
0.0025884
0.00269536
0.00277899
0.00283952
0.00287656
0.00288974
0.00289042
0.00288971
0.00287649
0.00283942
0.00277886
-0.00424554
-0.00424652
-0.00424752
-0.00424849
-0.00424943
-0.00425029
-0.00425104
-0.00425165
-0.00425207
-0.00425224
-0.00425211
-0.00425162
-0.00425068
-0.00424923
-0.00424717
-0.0042444
-0.0042408
-0.00423627
-0.00423065
-0.0042238
-0.00421556
-0.00420574
-0.00419414
-0.00418054
-0.0041647
-0.00414634
-0.00412519
-0.00410092
-0.00407319
-0.00404163
-0.00400582
-0.00396533
-0.00391969
-0.0038684
-0.00381091
-0.00374665
-0.00367502
-0.0035954
-0.00350713
-0.00340956
-0.00330199
-0.00318377
-0.00305425
-0.00291281
-0.0027589
-0.00259204
-0.00241186
-0.00221815
-0.00201085
-0.00179016
-0.00155649
-0.00131055
-0.0010534
-0.000786424
-0.00051136
-0.000230306
5.43243e-05
0.000339854
0.00062343
0.000902131
0.0011731
0.00143365
0.00168138
0.00191424
0.00213053
0.00232892
0.00250842
0.00266831
0.00280812
0.00292756
0.0030265
0.00310492
0.00316287
0.00319996
0.00321589
0.00321859
0.00321586
0.0031999
0.00316279
0.00310482
-0.0038856
-0.00388464
-0.00388334
-0.00388167
-0.0038796
-0.00387709
-0.0038741
-0.00387059
-0.00386649
-0.00386176
-0.00385633
-0.00385013
-0.00384306
-0.00383506
-0.00382601
-0.00381582
-0.00380435
-0.00379149
-0.0037771
-0.00376101
-0.00374307
-0.00372309
-0.00370088
-0.00367621
-0.00364887
-0.00361859
-0.00358512
-0.00354817
-0.00350742
-0.00346255
-0.00341322
-0.00335904
-0.00329964
-0.0032346
-0.00316349
-0.00308589
-0.00300134
-0.00290938
-0.00280956
-0.00270142
-0.00258453
-0.00245849
-0.00232291
-0.00217748
-0.00202194
-0.00185613
-0.00167998
-0.00149356
-0.00129707
-0.00109089
-0.000875586
-0.000651922
-0.00042088
-0.000183663
5.83062e-05
0.000303404
0.000549825
0.000795628
0.00103878
0.00127721
0.0015089
0.00173193
0.0019445
0.00214504
0.00233215
0.00250469
0.00266171
0.00280244
0.00292632
0.00303291
0.00312192
0.00319317
0.00324657
0.00328174
0.00329841
0.00330213
0.00329838
0.00328169
0.00324649
0.00319307
-0.00354889
-0.00354631
-0.00354309
-0.00353921
-0.00353463
-0.00352932
-0.00352322
-0.0035163
-0.0035085
-0.00349975
-0.00348999
-0.00347914
-0.00346713
-0.00345385
-0.00343922
-0.00342313
-0.00340546
-0.00338608
-0.00336486
-0.00334166
-0.00331631
-0.00328865
-0.0032585
-0.00322566
-0.00318993
-0.00315108
-0.00310888
-0.00306309
-0.00301345
-0.00295969
-0.00290151
-0.00283863
-0.00277074
-0.00269753
-0.00261868
-0.00253388
-0.0024428
-0.00234513
-0.00224058
-0.00212886
-0.00200972
-0.00188294
-0.00174833
-0.00160577
-0.0014552
-0.00129664
-0.00113019
-0.000956063
-0.00077457
-0.00058616
-0.00039141
-0.000191039
1.40909e-05
0.000222976
0.000434477
0.000647332
0.000860172
0.00107155
0.00127998
0.00148394
0.00168194
0.00187257
0.00205446
0.00222639
0.00238724
0.00253604
0.00267195
0.00279427
0.00290243
0.00299596
0.00307451
0.00313784
0.00318576
0.00321793
0.00323411
0.0032382
0.00323408
0.00321789
0.00318569
0.00313774
-0.0032354
-0.00323149
-0.00322671
-0.00322103
-0.00321443
-0.00320685
-0.00319827
-0.00318862
-0.00317787
-0.00316593
-0.00315276
-0.00313827
-0.00312239
-0.00310503
-0.00308611
-0.00306551
-0.00304313
-0.00301886
-0.00299256
-0.00296412
-0.00293339
-0.00290021
-0.00286443
-0.00282589
-0.0027844
-0.00273977
-0.00269183
-0.00264035
-0.00258514
-0.00252598
-0.00246265
-0.00239492
-0.00232256
-0.00224535
-0.00216307
-0.00207549
-0.00198241
-0.00188362
-0.00177896
-0.00166825
-0.00155138
-0.00142826
-0.00129882
-0.00116308
-0.00102108
-0.00087295
-0.000718875
-0.000559127
-0.00039406
-0.000224123
-4.98541e-05
0.000128107
0.000309028
0.000492082
0.000676355
0.00086086
0.00104454
0.00122631
0.00140502
0.00157955
0.00174878
0.00191161
0.00206701
0.00221402
0.00235175
0.00247939
0.00259624
0.00270167
0.00279517
0.0028763
0.00294471
0.00300012
0.00304235
0.00307108
0.00308608
0.00309015
0.00308606
0.00307103
0.00304228
0.00300002
-0.00294476
-0.0029398
-0.0029338
-0.00292672
-0.00291853
-0.00290921
-0.0028987
-0.00288696
-0.00287394
-0.00285958
-0.00284383
-0.0028266
-0.00280784
-0.00278746
-0.00276538
-0.00274151
-0.00271575
-0.002688
-0.00265815
-0.00262608
-0.00259168
-0.00255482
-0.00251535
-0.00247315
-0.00242807
-0.00237995
-0.00232865
-0.002274
-0.00221584
-0.00215401
-0.00208834
-0.00201867
-0.00194484
-0.00186669
-0.00178407
-0.00169685
-0.00160489
-0.00150809
-0.00140635
-0.0012996
-0.00118782
-0.00107098
-0.000949122
-0.000822317
-0.000690683
-0.000554392
-0.000413673
-0.000268811
-0.00012016
3.18648e-05
0.000186778
0.000344029
0.000503002
0.000663018
0.000823344
0.000983196
0.00114175
0.00129816
0.00145156
0.00160106
0.00174582
0.00188498
0.00201775
0.00214335
0.00226108
0.00237029
0.00247038
0.00256084
0.00264121
0.00271109
0.00277018
0.00281821
0.00285498
0.00288024
0.00289379
0.00289763
0.00289377
0.0028802
0.00285491
0.00281811
-0.00267634
-0.00267059
-0.00266367
-0.00265554
-0.00264618
-0.00263556
-0.00262363
-0.00261036
-0.00259569
-0.00257959
-0.00256198
-0.00254282
-0.00252204
-0.00249957
-0.00247533
-0.00244924
-0.00242123
-0.00239121
-0.00235907
-0.00232474
-0.0022881
-0.00224905
-0.00220748
-0.00216329
-0.00211634
-0.00206654
-0.00201375
-0.00195786
-0.00189874
-0.00183629
-0.00177038
-0.0017009
-0.00162774
-0.0015508
-0.00147
-0.00138524
-0.00129648
-0.00120365
-0.00110673
-0.00100571
-0.000900605
-0.000791468
-0.000678374
-0.000561438
-0.000440809
-0.000316681
-0.000189289
-5.8914e-05
7.41152e-05
0.000209423
0.000346586
0.000485133
0.00062455
0.00076428
0.000903728
0.00104227
0.00117925
0.00131401
0.00144586
0.00157411
0.00169811
0.00181719
0.0019307
0.00203805
0.00213867
0.00223203
0.00231764
0.00239508
0.00246395
0.00252392
0.00257472
0.00261612
0.00264792
0.00266993
0.00268196
0.00268547
0.00268194
0.00266989
0.00264786
0.00261604
-0.00242929
-0.00242298
-0.0024154
-0.00240654
-0.00239636
-0.00238483
-0.00237194
-0.00235762
-0.00234185
-0.00232458
-0.00230577
-0.00228535
-0.00226328
-0.0022395
-0.00221393
-0.00218653
-0.00215721
-0.00212591
-0.00209255
-0.00205705
-0.00201933
-0.0019793
-0.00193689
-0.001892
-0.00184454
-0.00179444
-0.00174159
-0.00168592
-0.00162733
-0.00156576
-0.00150111
-0.00143332
-0.00136233
-0.00128807
-0.0012105
-0.00112958
-0.0010453
-0.000957644
-0.000866626
-0.000772279
-0.000674657
-0.000573837
-0.000469924
-0.000363052
-0.000253383
-0.000141112
-2.64674e-05
9.0288e-05
0.000208857
0.000328908
0.000450075
0.000571959
0.000694128
0.000816126
0.000937468
0.00105765
0.00117615
0.00129243
0.00140596
0.00151619
0.0016226
0.00172466
0.00182187
0.00191373
0.0019998
0.00207965
0.00215289
0.00221914
0.00227811
0.0023295
0.00237308
0.00240866
0.00243607
0.00245513
0.00246571
0.00246887
0.00246569
0.0024551
0.00243602
0.0024086
-0.00220258
-0.0021959
-0.00218791
-0.00217858
-0.00216789
-0.00215581
-0.00214232
-0.00212738
-0.00211097
-0.00209303
-0.00207354
-0.00205244
-0.00202969
-0.00200525
-0.00197906
-0.00195106
-0.0019212
-0.00188943
-0.00185568
-0.00181989
-0.001782
-0.00174195
-0.00169966
-0.00165508
-0.00160813
-0.00155877
-0.00150692
-0.00145253
-0.00139554
-0.0013359
-0.00127357
-0.00120849
-0.00114065
-0.00107001
-0.000996561
-0.0009203
-0.000841235
-0.000759389
-0.000674802
-0.00058753
-0.000497647
-0.000405248
-0.000310449
-0.000213391
-0.000114234
-1.3168e-05
8.95953e-05
0.000193817
0.000299232
0.000405552
0.000512461
0.000619622
0.000726675
0.000833241
0.000938923
0.00104331
0.00114598
0.00124651
0.00134446
0.0014394
0.00153091
0.00161857
0.00170197
0.00178073
0.00185448
0.00192287
0.00198558
0.00204232
0.00209283
0.00213687
0.00217425
0.0022048
0.00222838
0.00224485
0.0022541
0.00225691
0.00225409
0.00224484
0.00222836
0.00220477
-0.00199509
-0.00198822
-0.00198
-0.00197043
-0.00195949
-0.00194714
-0.00193338
-0.00191817
-0.00190149
-0.00188329
-0.00186356
-0.00184225
-0.00181933
-0.00179476
-0.00176849
-0.00174049
-0.0017107
-0.0016791
-0.00164562
-0.00161023
-0.00157287
-0.0015335
-0.00149207
-0.00144854
-0.00140286
-0.001355
-0.0013049
-0.00125254
-0.00119787
-0.00114088
-0.00108154
-0.00101984
-0.000955753
-0.000889293
-0.000820464
-0.000749283
-0.000675782
-0.000600001
-0.000521997
-0.000441838
-0.000359611
-0.000275417
-0.000189376
-0.000101624
-1.23177e-05
7.83683e-05
0.00017024
0.000263083
0.000356666
0.000450736
0.000545024
0.000639245
0.000733097
0.000826265
0.000918422
0.00100923
0.00109835
0.00118543
0.00127013
0.00135209
0.00143097
0.00150644
0.00157816
0.00164584
0.00170916
0.00176785
0.00182165
0.00187032
0.00191364
0.00195143
0.00198351
0.00200976
0.00203006
0.00204428
0.00205234
0.00205482
0.00205234
0.00204428
0.00203006
0.00200976
-0.00180563
-0.00179869
-0.00179042
-0.0017808
-0.00176982
-0.00175745
-0.00174367
-0.00172847
-0.00171183
-0.00169371
-0.00167409
-0.00165295
-0.00163025
-0.00160596
-0.00158006
-0.0015525
-0.00152327
-0.00149232
-0.00145961
-0.00142513
-0.00138882
-0.00135067
-0.00131064
-0.0012687
-0.00122482
-0.00117897
-0.00113114
-0.0010813
-0.00102944
-0.000975549
-0.000919622
-0.000861659
-0.000801669
-0.000739666
-0.000675675
-0.000609728
-0.000541867
-0.000472146
-0.000400629
-0.000327393
-0.000252527
-0.000176133
-9.83283e-05
-1.92431e-05
6.09772e-05
0.000142173
0.000224169
0.000306776
0.00038979
0.000472996
0.000556161
0.000639044
0.000721391
0.000802941
0.000883421
0.000962555
0.00104006
0.00111566
0.00118906
0.00125998
0.00132814
0.00139327
0.00145511
0.00151341
0.00156791
0.0016184
0.00166466
0.00170649
0.00174373
0.00177621
0.0018038
0.00182638
0.00184387
0.00185616
0.00186317
0.00186536
0.00186318
0.00185617
0.00184389
0.00182642
-0.00163297
-0.00162609
-0.0016179
-0.00160838
-0.00159752
-0.00158531
-0.00157174
-0.00155678
-0.00154041
-0.00152263
-0.00150341
-0.00148272
-0.00146055
-0.00143687
-0.00141167
-0.00138491
-0.00135657
-0.00132664
-0.00129508
-0.00126187
-0.001227
-0.00119044
-0.00115218
-0.00111219
-0.00107046
-0.00102698
-0.000981736
-0.000934729
-0.000885953
-0.000835412
-0.000783114
-0.000729072
-0.000673306
-0.000615843
-0.000556715
-0.000495965
-0.000433644
-0.000369809
-0.000304529
-0.000237883
-0.000169959
-0.000100858
-3.06888e-05
4.04259e-05
0.000112353
0.000184949
0.000258057
0.000331511
0.000405133
0.000478736
0.000552123
0.000625089
0.00069742
0.000768895
0.000839291
0.000908376
0.000975918
0.00104169
0.00110544
0.00116696
0.00122601
0.00128237
0.00133583
0.00138618
0.00143321
0.00147676
0.00151664
0.00155269
0.00158477
0.00161275
0.00163653
0.001656
0.00167109
0.00168172
0.00168783
0.00168975
0.00168785
0.00168175
0.00167114
0.00165607
-0.00147589
-0.00146916
-0.00146115
-0.00145185
-0.00144126
-0.00142936
-0.00141614
-0.0014016
-0.0013857
-0.00136846
-0.00134984
-0.00132983
-0.00130842
-0.00128559
-0.00126133
-0.00123561
-0.00120844
-0.00117978
-0.00114962
-0.00111796
-0.00108478
-0.00105006
-0.00101381
-0.000976004
-0.000936646
-0.000895734
-0.000853267
-0.000809251
-0.000763693
-0.000716606
-0.000668007
-0.000617917
-0.000566366
-0.000513385
-0.000459016
-0.000403305
-0.000346305
-0.000288077
-0.000228692
-0.000168225
-0.000106763
-4.43994e-05
1.87623e-05
8.26104e-05
0.000147025
0.000211875
0.000277024
0.000342326
0.000407626
0.000472762
0.000537566
0.000601863
0.000665473
0.000728211
0.000789888
0.000850313
0.000909293
0.000966636
0.00102215
0.00107564
0.00112693
0.00117583
0.00122216
0.00126576
0.00130646
0.00134412
0.00137859
0.00140974
0.00143745
0.00146163
0.00148216
0.00149899
0.00151205
0.00152126
0.00152658
0.00152828
0.00152661
0.00152131
0.00151212
0.00149909
-0.00133321
-0.00132669
-0.00131894
-0.00130996
-0.00129973
-0.00128825
-0.00127552
-0.00126151
-0.00124623
-0.00122967
-0.0012118
-0.00119264
-0.00117215
-0.00115034
-0.0011272
-0.00110271
-0.00107686
-0.00104965
-0.00102108
-0.000991123
-0.000959789
-0.000927071
-0.000892966
-0.000857477
-0.000820606
-0.000782358
-0.000742742
-0.000701769
-0.000659456
-0.00061582
-0.000570886
-0.00052468
-0.000477236
-0.000428592
-0.000378789
-0.000327878
-0.000275913
-0.000222955
-0.000169071
-0.000114336
-5.88298e-05
-2.6409e-06
5.41363e-05
0.0001114
0.000169042
0.000226948
0.000284994
0.000343054
0.000400993
0.000458672
0.000515947
0.000572667
0.000628681
0.000683833
0.000737964
0.000790913
0.000842522
0.000892628
0.000941073
0.000987701
0.00103236
0.00107489
0.00111515
0.00115301
0.00118833
0.00122099
0.00125086
0.00127785
0.00130186
0.0013228
0.00134058
0.00135516
0.00136648
0.00137449
0.00137913
0.00138062
0.00137916
0.00137455
0.00136658
0.00135529
-0.00120377
-0.00119751
-0.00119009
-0.00118148
-0.00117169
-0.00116072
-0.00114855
-0.00113518
-0.00112061
-0.00110483
-0.00108783
-0.00106962
-0.00105017
-0.00102949
-0.00100758
-0.000984421
-0.000960019
-0.000934369
-0.000907469
-0.000879318
-0.000849919
-0.000819273
-0.000787385
-0.000754261
-0.00071991
-0.000684343
-0.000647573
-0.000609619
-0.0005705
-0.000530239
-0.000488864
-0.000446405
-0.000402898
-0.000358383
-0.000312904
-0.00026651
-0.000219255
-0.000171199
-0.000122405
-7.29429e-05
-2.28891e-05
2.76762e-05
7.86667e-05
0.000129991
0.000181551
0.000233246
0.000284968
0.000336605
0.000388041
0.000439155
0.000489823
0.000539919
0.000589311
0.000637869
0.000685457
0.000731943
0.000777191
0.000821068
0.00086344
0.000904178
0.000943154
0.000980243
0.00101532
0.00104829
0.00107901
0.00110741
0.00113338
0.00115683
0.00117768
0.00119586
0.00121131
0.00122398
0.00123381
0.00124078
0.00124485
0.00124616
0.00124488
0.00124086
0.00123393
0.00122412
-0.00108646
-0.00108051
-0.00107344
-0.00106526
-0.00105596
-0.00104554
-0.001034
-0.00102133
-0.00100754
-0.00099261
-0.000976548
-0.000959349
-0.000941011
-0.000921534
-0.000900915
-0.000879155
-0.000856254
-0.000832214
-0.000807038
-0.000780729
-0.000753293
-0.000724737
-0.00069507
-0.000664303
-0.000632448
-0.00059952
-0.000565538
-0.000530521
-0.000494492
-0.000457478
-0.000419509
-0.000380616
-0.000340836
-0.00030021
-0.000258782
-0.000216599
-0.000173713
-0.000130181
-8.60643e-05
-4.14268e-05
3.66171e-06
4.91275e-05
9.48925e-05
0.000140874
0.000186987
0.000233139
0.000279236
0.000325182
0.000370874
0.000416209
0.000461079
0.000505376
0.000548989
0.000591806
0.000633714
0.000674598
0.000714347
0.000752848
0.000789989
0.000825663
0.000859761
0.000892182
0.000922824
0.000951593
0.000978399
0.00100316
0.00102578
0.00104621
0.00106437
0.0010802
0.00109366
0.00110469
0.00111326
0.00111935
0.00112291
0.00112407
0.00112295
0.00111943
0.00111339
0.00110486
-0.000980244
-0.000974614
-0.000967936
-0.000960209
-0.000951433
-0.000941607
-0.000930728
-0.000918798
-0.000905814
-0.000891777
-0.000876686
-0.000860542
-0.000843347
-0.0008251
-0.000805805
-0.000785465
-0.000764083
-0.000741665
-0.000718216
-0.000693743
-0.000668256
-0.000641765
-0.000614282
-0.000585819
-0.000556394
-0.000526023
-0.000494727
-0.000462529
-0.000429452
-0.000395525
-0.000360778
-0.000325244
-0.00028896
-0.000251964
-0.000214301
-0.000176016
-0.000137158
-9.77798e-05
-5.79389e-05
-1.76949e-05
2.28889e-05
6.37455e-05
0.000104804
0.000145992
0.000187232
0.000228443
0.000269543
0.000310447
0.000351066
0.00039131
0.000431087
0.000470304
0.000508866
0.000546677
0.000583642
0.000619663
0.000654646
0.000688496
0.00072112
0.000752426
0.000782325
0.00081073
0.000837558
0.000862731
0.000886172
0.00090781
0.00092758
0.000945421
0.000961277
0.0009751
0.000986846
0.00099648
0.00100397
0.00100929
0.00101242
0.00101344
0.00101246
0.00100938
0.00100411
0.000996663
-0.000884148
-0.000878854
-0.000872579
-0.000865322
-0.000857085
-0.000847866
-0.000837667
-0.00082649
-0.000814334
-0.000801201
-0.000787095
-0.000772016
-0.000755969
-0.000738957
-0.000720984
-0.000702057
-0.000682181
-0.000661364
-0.000639614
-0.000616942
-0.000593357
-0.000568873
-0.000543503
-0.000517264
-0.000490173
-0.000462249
-0.000433513
-0.00040399
-0.000373704
-0.000342684
-0.00031096
-0.000278565
-0.000245534
-0.000211906
-0.000177721
-0.000143024
-0.00010786
-7.22791e-05
-3.6333e-05
-7.69162e-08
3.64315e-05
7.31317e-05
0.00010996
0.000146852
0.000183738
0.000220548
0.000257208
0.000293645
0.000329782
0.000365539
0.000400839
0.000435599
0.00046974
0.000503179
0.000535834
0.000567623
0.000598467
0.000628283
0.000656995
0.000684524
0.000710796
0.000735738
0.000759281
0.000781357
0.000801904
0.000820862
0.000838176
0.000853796
0.000867676
0.000879774
0.000890055
0.000898489
0.00090505
0.000909715
0.000912465
0.000913372
0.000912513
0.000909811
0.000905195
0.000898682
-0.000797263
-0.00079231
-0.000786442
-0.00077966
-0.000771964
-0.000763357
-0.00075384
-0.000743415
-0.000732086
-0.000719854
-0.000706725
-0.000692701
-0.000677788
-0.000661992
-0.000645318
-0.000627774
-0.000609368
-0.000590109
-0.000570008
-0.000549075
-0.000527323
-0.000504767
-0.000481421
-0.000457303
-0.000432431
-0.000406825
-0.000380507
-0.000353502
-0.000325833
-0.000297531
-0.000268623
-0.000239143
-0.000209124
-0.000178602
-0.000147616
-0.000116208
-8.44196e-05
-5.22972e-05
-1.98883e-05
1.27568e-05
4.55859e-05
7.85444e-05
0.000111576
0.000144621
0.00017762
0.000210509
0.000243226
0.000275705
0.000307878
0.000339677
0.000371035
0.000401881
0.000432145
0.000461757
0.000490648
0.000518747
0.000545986
0.000572297
0.000597612
0.000621867
0.000644998
0.000666945
0.000687647
0.00070705
0.0007251
0.000741748
0.000756946
0.000770654
0.000782832
0.000793445
0.000802465
0.000809865
0.000815624
0.000819723
0.000822147
0.000822952
0.000822197
0.000819824
0.000815775
0.000810065
-0.000718747
-0.000714133
-0.00070867
-0.000702357
-0.000695198
-0.000687195
-0.00067835
-0.000668667
-0.000658149
-0.000646801
-0.000634627
-0.000621633
-0.000607825
-0.000593209
-0.000577794
-0.000561587
-0.000544598
-0.000526838
-0.000508317
-0.000489048
-0.000469045
-0.000448322
-0.000426896
-0.000404783
-0.000382004
-0.000358578
-0.000334527
-0.000309874
-0.000284646
-0.000258869
-0.000232572
-0.000205784
-0.00017854
-0.000150872
-0.000122817
-9.44134e-05
-6.57006e-05
-3.67205e-05
-7.51693e-06
2.18647e-05
5.13771e-05
8.09712e-05
0.000110596
0.0001402
0.000169729
0.000199127
0.000228339
0.000257308
0.000285974
0.000314278
0.000342161
0.000369563
0.000396423
0.000422681
0.000448277
0.000473152
0.000497245
0.0005205
0.000542859
0.000564268
0.000584672
0.000604019
0.00062226
0.000639348
0.000655238
0.000669887
0.000683257
0.000695313
0.00070602
0.000715352
0.000723282
0.00072979
0.000734856
0.000738466
0.000740606
0.000741321
0.000740658
0.000738569
0.00073501
0.000729994
-0.000647825
-0.000643544
-0.000638476
-0.000632622
-0.000625987
-0.000618572
-0.000610381
-0.000601418
-0.000591688
-0.000581194
-0.000569944
-0.000557944
-0.000545199
-0.000531718
-0.00051751
-0.000502582
-0.000486947
-0.000470614
-0.000453595
-0.000435904
-0.000417555
-0.000398562
-0.000378943
-0.000358714
-0.000337895
-0.000316505
-0.000294567
-0.000272103
-0.000249137
-0.000225696
-0.000201807
-0.000177498
-0.0001528
-0.000127746
-0.000102368
-7.67019e-05
-5.07845e-05
-2.46539e-05
1.65011e-06
2.80863e-05
5.46121e-05
8.11835e-05
0.000107755
0.00013428
0.000160711
0.000187
0.000213096
0.00023895
0.000264509
0.000289724
0.000314541
0.000338908
0.000362774
0.000386086
0.000408793
0.000430842
0.000452185
0.000472771
0.000492551
0.000511479
0.000529508
0.000546595
0.000562697
0.000577774
0.000591789
0.000604705
0.00061649
0.000627113
0.000636548
0.000644769
0.000651756
0.00065749
0.000661957
0.000665142
0.000667035
0.000667671
0.000667087
0.000665245
0.000662112
0.000657696
-0.000583785
-0.000579826
-0.00057514
-0.000569731
-0.0005636
-0.000556752
-0.000549191
-0.00054092
-0.000531945
-0.000522272
-0.000511906
-0.000500854
-0.000489124
-0.000476724
-0.000463663
-0.00044995
-0.000435596
-0.000420612
-0.000405011
-0.000388806
-0.00037201
-0.00035464
-0.000336711
-0.000318241
-0.000299248
-0.000279752
-0.000259773
-0.000239334
-0.000218458
-0.000197169
-0.000175493
-0.000153458
-0.000131092
-0.000108424
-8.54853e-05
-6.23087e-05
-3.89277e-05
-1.5377e-05
8.30726e-06
3.20879e-05
5.59264e-05
7.97834e-05
0.000103618
0.00012739
0.000151056
0.000174572
0.000197897
0.000220984
0.00024379
0.00026627
0.000288377
0.000310067
0.000331294
0.000352014
0.000372182
0.000391753
0.000410684
0.000428933
0.000446457
0.000463217
0.000479174
0.000494289
0.000508527
0.000521853
0.000534236
0.000545645
0.000556052
0.000565431
0.00057376
0.000581017
0.000587184
0.000592246
0.000596191
0.000599006
0.000600684
0.00060125
0.000600735
0.00059911
0.000596346
0.000592453
-0.000525976
-0.000522325
-0.000518006
-0.000513021
-0.000507373
-0.000501067
-0.000494106
-0.000486495
-0.00047824
-0.000469345
-0.000459819
-0.000449667
-0.000438897
-0.000427519
-0.000415541
-0.000402972
-0.000389824
-0.000376108
-0.000361836
-0.000347021
-0.000331678
-0.000315821
-0.000299466
-0.00028263
-0.000265331
-0.000247587
-0.000229419
-0.000210847
-0.000191894
-0.000172582
-0.000152935
-0.00013298
-0.000112742
-9.22491e-05
-7.15294e-05
-5.06128e-05
-2.95298e-05
-8.31216e-06
1.30074e-05
3.43954e-05
5.58171e-05
7.72374e-05
9.86199e-05
0.000119928
0.000141124
0.000162169
0.000183026
0.000203655
0.000224017
0.000244073
0.000263783
0.000283107
0.000302006