/*--------------------------------*- C++ -*----------------------------------*\
| =========                 |                                                 |
| \\      /  F ield         | OpenFOAM: The Open Source CFD Toolbox           |
|  \\    /   O peration     | Version:  2306                                  |
|   \\  /    A nd           | Website:  www.openfoam.com                      |
|    \\/     M anipulation  |                                                 |
\*---------------------------------------------------------------------------*/
FoamFile
{
    version     2.0;
    format      ascii;
    arch        "LSB;label=32;scalar=64";
    class       surfaceScalarField;
    location    "50";
    object      phi;
}
// * * * * * * * * * * * * * * * * * * * * * * * * * * * * * * * * * * * * * //

dimensions      [0 3 -1 0 0 0 0];

oriented        oriented;

internalField   nonuniform List<scalar> 
37980
(
-0.0740861
0.0135537
1.74162e-10
-0.0876977
0.0136116
1.65472e-10
-0.101377
0.0136792
1.31821e-10
-0.115133
0.0137565
8.75139e-11
-0.128977
0.013844
9.14819e-11
-0.142919
0.0139418
1.02618e-10
-0.15697
0.0140504
1.15554e-10
-0.17114
0.01417
1.21979e-10
-0.18544
0.0143009
1.30912e-10
-0.199884
0.0144437
1.3518e-10
-0.214483
0.0145986
1.43728e-10
-0.229249
0.0147662
1.4789e-10
-0.244196
0.0149469
1.57052e-10
-0.259337
0.0151412
1.61899e-10
-0.274687
0.0153496
1.72122e-10
-0.29026
0.0155729
1.78179e-10
-0.306071
0.0158115
1.89652e-10
-0.322137
0.0160663
1.97273e-10
-0.338475
0.0163379
2.0999e-10
-0.355102
0.0166271
2.19418e-10
-0.372037
0.0169347
2.33207e-10
-0.389299
0.0172617
2.44571e-10
-0.406908
0.017609
2.59071e-10
-0.424885
0.0179775
2.72326e-10
-0.443254
0.0183684
2.86927e-10
-0.462036
0.0187828
3.01747e-10
-0.481258
0.0192219
3.15497e-10
-0.500945
0.0196868
3.31084e-10
-0.521124
0.020179
3.42519e-10
-0.541824
0.0206999
3.57286e-10
-0.563075
0.0212508
3.64149e-10
-0.584908
0.0218336
3.75243e-10
-0.607358
0.0224499
3.74177e-10
-0.63046
0.0231018
3.77164e-10
-0.654252
0.0237918
3.64075e-10
-0.678775
0.0245228
3.5401e-10
-0.704073
0.0252988
3.26983e-10
-0.730198
0.026125
3.03185e-10
-0.757207
0.0270087
2.69979e-10
-0.785168
0.0279605
2.44071e-10
-0.814164
0.028996
2.27865e-10
-0.844302
0.0301383
2.18482e-10
-0.875724
0.0314223
2.25719e-10
-0.908625
0.0329009
1.74807e-10
-0.94328
0.0346554
7.36065e-11
-0.980092
0.036812
-3.17484e-10
-1.01966
0.0395686
-9.52119e-10
-1.0629
0.0432396
-2.1936e-09
-1.11123
0.0483282
-3.67865e-09
-1.16687
0.0556392
-5.46809e-09
-1.23332
0.0664517
-6.46617e-09
-1.31609
0.0827693
-6.31045e-09
-1.42376
0.107669
-2.55446e-09
-1.56948
0.145722
4.70681e-09
-1.77286
0.203377
1.45902e-08
-2.06233
0.289475
2.45663e-08
-2.47762
0.415283
2.56061e-08
-3.06736
0.58974
2.10229e-08
-3.89332
0.825963
1.63463e-08
-5.01292
1.1196
1.79418e-07
-6.55471
1.54179
8.33273e-08
-5.18692
3.35691
4.81364e-07
-4.40599
3.94378
-6.97717e-09
-3.83809
4.1568
-5.38538e-08
-3.36739
4.254
-8.93786e-08
-2.95029
4.30761
-1.13247e-07
-2.56836
4.34277
-1.22216e-07
-2.21268
4.36902
-1.06374e-07
-1.87795
4.38998
-8.45639e-08
-1.56041
4.40716
-5.68899e-08
-1.257
4.42129
-3.53749e-08
-0.965082
4.43278
-1.8226e-08
-0.682272
4.44189
-8.63127e-09
-0.406323
4.44875
-3.12091e-09
-0.134894
4.45328
-3.72443e-10
0.13488
4.45493
6.25458e-09
0.406308
4.45328
-8.05186e-09
0.682256
4.44876
3.40366e-10
0.965065
4.44189
-2.04341e-08
4.43279
-2.17536e-08
-0.182473
0.0469344
-4.82788e-12
-0.216002
0.0471412
-1.15522e-11
-0.249708
0.0473848
-4.88318e-11
-0.283617
0.0476659
-7.88681e-11
-0.317759
0.0479856
-7.75356e-11
-0.352162
0.0483447
-6.96133e-11
-0.386856
0.0487446
-6.55686e-11
-0.421872
0.0491864
-6.39182e-11
-0.457243
0.0496717
-6.49947e-11
-0.493002
0.0502021
-6.59921e-11
-0.529182
0.0507794
-6.85864e-11
-0.565822
0.0514055
-7.03876e-11
-0.602957
0.0520826
-7.35651e-11
-0.640629
0.052813
-7.55848e-11
-0.678879
0.0535993
-7.88776e-11
-0.71775
0.0544444
-8.07418e-11
-0.75729
0.0553513
-8.37795e-11
-0.797547
0.0563236
-8.51737e-11
-0.838574
0.0573649
-8.75712e-11
-0.880427
0.0584793
-8.81518e-11
-0.923163
0.0596713
-8.94356e-11
-0.966848
0.0609459
-8.87853e-11
-1.01155
0.0623085
-8.83609e-11
-1.05733
0.063765
-8.5982e-11
-1.10429
0.0653221
-8.31371e-11
-1.15249
0.066987
-7.84786e-11
-1.20204
0.0687677
-7.2429e-11
-1.25302
0.0706733
-6.49783e-11
-1.30556
0.0727138
-5.502e-11
-1.35976
0.0749002
-4.45482e-11
-1.41575
0.0772452
-3.0418e-11
-1.47368
0.079763
-1.74541e-11
-1.5337
0.0824699
9.55096e-14
-1.59599
0.0853845
1.37527e-11
-1.66072
0.0885285
3.27305e-11
-1.72813
0.0919275
4.4656e-11
-1.79844
0.0956117
6.39873e-11
-1.87193
0.099618
7.58093e-11
-1.94892
0.103991
1.0305e-10
-2.02974
0.108788
1.30888e-10
-2.11483
0.114079
1.93419e-10
-2.20465
0.119958
2.3906e-10
-2.29977
0.126546
3.86113e-10
-2.40087
0.134006
4.86266e-10
-2.50878
0.142564
5.52832e-10
-2.6245
0.152532
4.15652e-10
-2.74929
0.164359
-1.66193e-11
-2.88475
0.178698
-9.88705e-10
-3.03294
0.196514
-2.48201e-09
-3.19654
0.219243
-4.39589e-09
-3.37911
0.249017
-6.24216e-09
-3.58528
0.288947
-6.9597e-09
-3.82104
0.343427
-5.82472e-09
-4.0937
0.41838
-1.09346e-09
-4.41172
0.521399
5.97609e-09
-4.78421
0.661958
1.35872e-08
-5.22092
0.851999
1.91688e-08
-5.73834
1.10716
2.29303e-08
-6.35321
1.44083
2.72347e-08
-7.07885
1.84524
1.76789e-08
-7.82647
2.28941
1.33359e-08
-7.2322
2.76264
-3.89036e-08
-6.40892
3.12049
-4.46129e-08
-5.62833
3.37622
-4.95485e-08
-4.93178
3.55745
-4.44962e-08
-4.3113
3.68713
-4.10227e-08
-3.75054
3.78201
-2.98482e-08
-3.23458
3.85307
-1.73802e-08
-2.75196
3.90735
-4.75513e-09
-2.29419
3.9494
5.33791e-09
-1.85504
3.98214
1.25037e-08
-1.42973
4.00747
1.64662e-08
-1.01446
4.02662
1.80857e-08
-0.606022
4.04032
1.81369e-08
-0.201569
4.04882
1.76887e-08
0.20157
4.05179
1.88886e-08
0.606024
4.04882
1.80463e-08
1.01446
4.04032
1.90688e-08
1.42973
4.02662
1.64442e-08
4.00747
1.43937e-08
-0.229917
0.0889877
-1.21062e-11
-0.272155
0.0893797
-2.8001e-11
-0.314614
0.0898437
-4.62895e-11
-0.357329
0.0903809
-7.45704e-11
-0.400337
0.0909931
-6.83727e-11
-0.443674
0.0916821
-5.70101e-11
-0.48738
0.0924504
-4.99845e-11
-0.531494
0.0933004
-4.62048e-11
-0.576057
0.0942351
-4.52837e-11
-0.621113
0.0952576
-4.45744e-11
-0.666705
0.0963715
-4.52872e-11
-0.71288
0.0975808
-4.53034e-11
-0.759687
0.0988898
-4.64402e-11
-0.807178
0.100303
-4.64743e-11
-0.855405
0.101827
-4.75265e-11
-0.904427
0.103466
-4.71962e-11
-0.954302
0.105227
-4.78197e-11
-1.0051
0.107117
-4.68427e-11
-1.05688
0.109144
-4.67265e-11
-1.10971
0.111317
-4.48422e-11
-1.16369
0.113645
-4.36561e-11
-1.21888
0.116138
-4.06058e-11
-1.27538
0.118809
-3.79967e-11
-1.33328
0.121669
-3.35445e-11
-1.39269
0.124734
-2.91664e-11
-1.45373
0.128018
-2.3155e-11
-1.5165
0.131541
-1.67419e-11
-1.58115
0.135322
-9.20988e-12
-1.64782
0.139383
-7.43182e-13
-1.71667
0.143749
7.82529e-12
-1.78787
0.148449
1.77724e-11
-1.86162
0.153515
2.59912e-11
-1.93814
0.158985
3.57093e-11
-2.01765
0.164901
4.07626e-11
-2.10044
0.171311
4.70873e-11
-2.18678
0.178274
4.50376e-11
-2.27703
0.185855
4.48107e-11
-2.37154
0.194135
3.39969e-11
-2.47076
0.203206
2.98754e-11
-2.57515
0.213181
1.89338e-11
-2.68527
0.224198
2.75917e-11
-2.80173
0.236422
3.84199e-11
-2.92525
0.250062
7.72756e-11
-3.05662
0.265374
9.74695e-11
-3.19674
0.282689
9.31436e-11
-3.34664
0.302431
-6.29307e-11
-3.50744
0.325156
-4.32392e-10
-3.68035
0.35161
-1.20303e-09
-3.86664
0.382808
-2.37359e-09
-4.06754
0.420143
-3.90393e-09
-4.28407
0.465544
-5.47546e-09
-4.51677
0.521648
-6.42472e-09
-4.76532
0.591975
-5.63595e-09
-5.02799
0.681047
-3.66557e-09
-5.30097
0.79438
7.51337e-10
-5.57728
0.938268
6.6215e-09
-5.84445
1.11917
1.27489e-08
-6.07881
1.34152
1.83007e-08
-6.24066
1.60269
2.01833e-08
-6.2862
1.89078
1.8072e-08
-6.1819
2.18511
1.23467e-08
-5.884
2.46474
5.69002e-09
-5.47289
2.70938
-1.62849e-09
-5.01132
2.91464
-8.31832e-09
-4.53458
3.08071
-1.35986e-08
-4.05987
3.21242
-1.37498e-08
-3.59433
3.31647
-1.25261e-08
-3.14023
3.39897
-9.78014e-09
-2.69756
3.46468
-6.43246e-09
-2.26524
3.51709
-3.37388e-09
-1.84178
3.55868
-9.86536e-10
-1.4255
3.59119
5.6728e-10
-1.01465
3.61577
1.40948e-09
-0.607474
3.63314
1.73062e-09
-0.202292
3.64364
1.80067e-09
0.2023
3.6472
2.18554e-09
0.607482
3.64364
2.02643e-09
1.01466
3.63314
1.97192e-09
1.42551
3.61577
1.04043e-09
3.59119
-2.26412e-11
-0.242954
0.133417
5.90153e-11
-0.287573
0.133999
6.33277e-11
-0.332419
0.134689
3.1267e-11
-0.377528
0.135489
1.76263e-11
-0.422937
0.136402
2.02072e-11
-0.468686
0.137431
2.6111e-11
-0.514814
0.138578
2.91462e-11
-0.561362
0.139849
3.09073e-11
-0.608372
0.141246
3.1362e-11
-0.65589
0.142775
3.23283e-11
-0.70396
0.144441
3.27057e-11
-0.75263
0.146251
3.39712e-11
-0.80195
0.14821
3.46511e-11
-0.851972
0.150326
3.63797e-11
-0.902752
0.152607
3.74873e-11
-0.954348
0.155061
3.98016e-11
-1.00682
0.157699
4.14928e-11
-1.06024
0.160531
4.45422e-11
-1.11466
0.163569
4.70156e-11
-1.17017
0.166826
5.09677e-11
-1.22684
0.170315
5.4455e-11
-1.28476
0.174054
5.94743e-11
-1.34401
0.178059
6.42188e-11
-1.40469
0.18235
7.04322e-11
-1.4669
0.186949
7.66552e-11
-1.53076
0.191879
8.41e-11
-1.59639
0.197167
9.1942e-11
-1.66391
0.202844
1.00477e-10
-1.73347
0.208942
1.0988e-10
-1.80522
0.2155
1.19008e-10
-1.87933
0.222561
1.29474e-10
-1.95599
0.230172
1.38028e-10
-2.03539
0.238387
1.48244e-10
-2.11776
0.247271
1.54012e-10
-2.20334
0.256893
1.61591e-10
-2.29241
0.267337
1.61483e-10
-2.38525
0.278696
1.63888e-10
-2.48219
0.291082
1.56209e-10
-2.58361
0.304621
1.54628e-10
-2.68989
0.319465
1.43836e-10
-2.80148
0.33579
1.64429e-10
-2.91887
0.353805
1.56821e-10
-3.04257
0.373761
1.92116e-10
-3.17315
0.395956
2.22398e-10
-3.31121
0.42075
2.61389e-10
-3.45736
0.448584
2.35398e-10
-3.6122
0.479995
1.17726e-10
-3.77624
0.515652
-2.01417e-10
-3.94983
0.556396
-7.50713e-10
-4.13298
0.603287
-1.52831e-09
-4.32511
0.657676
-2.44162e-09
-4.52473
0.721269
-3.13688e-09
-4.72893
0.796181
-3.43944e-09
-4.93283
0.884947
-2.50399e-09
-5.12889
0.990435
-9.66904e-10
-5.30622
1.1156
1.92863e-09
-5.44992
1.26287
5.2588e-09
-5.5413
1.4329
8.25616e-09
-5.56136
1.62275
1.02218e-08
-5.49597
1.82539
1.03076e-08
-5.34158
2.03072
8.87224e-09
-5.10521
2.22837
5.69081e-09
-4.80526
2.40943
1.981e-09
-4.46022
2.56961
-1.67187e-09
-4.08702
2.70751
-4.22935e-09
-3.69863
2.82403
-5.57802e-09
-3.30361
2.92144
-5.73583e-09
-2.90703
3.00239
-5.07709e-09
-2.51168
3.06932
-4.0225e-09
-2.11885
3.12426
-2.89163e-09
-1.72894
3.16877
-1.9324e-09
-1.34178
3.20403
-1.21797e-09
-0.956882
3.23087
-7.7811e-10
-0.573567
3.24983
-5.40119e-10
-0.191104
3.26118
-4.37053e-10
0.191112
3.26498
-2.1062e-10
0.573574
3.26118
-4.8248e-10
0.95689
3.24983
-3.71716e-10
1.34179
3.23087
-1.13264e-09
3.20403
-1.61155e-09
-0.242849
0.177815
-2.7855e-11
-0.287428
0.178578
-4.08215e-11
-0.332222
0.179483
-4.73357e-11
-0.377265
0.180533
-6.6582e-11
-0.422594
0.181731
-6.07244e-11
-0.468245
0.183082
-5.20661e-11
-0.514256
0.184589
-4.73426e-11
-0.560665
0.186257
-4.51715e-11
-0.607512
0.188093
-4.53109e-11
-0.654838
0.190101
-4.53483e-11
-0.702686
0.19229
-4.65225e-11
-0.751101
0.194666
-4.68891e-11
-0.800129
0.197237
-4.82305e-11
-0.849817
0.200015
-4.85028e-11
-0.900218
0.203007
-4.972e-11
-0.951383
0.206227
-4.96816e-11
-1.00337
0.209686
-5.05407e-11
-1.05624
0.213397
-4.99922e-11
-1.11004
0.217377
-5.02376e-11
-1.16486
0.221641
-4.89697e-11
-1.22075
0.226207
-4.83144e-11
-1.27779
0.231096
-4.61188e-11
-1.33606
0.236331
-4.42632e-11
-1.39565
0.241934
-4.09663e-11
-1.45663
0.247935
-3.76361e-11
-1.51912
0.254362
-3.31529e-11
-1.5832
0.261249
-2.81686e-11
-1.64899
0.268633
-2.25929e-11
-1.7166
0.276557
-1.59932e-11
-1.78617
0.285065
-9.7557e-12
-1.85782
0.294211
-2.01746e-12
-1.9317
0.304051
3.85163e-12
-2.00796
0.314653
1.14665e-11
-2.08678
0.326088
1.49986e-11
-2.16833
0.338442
2.01009e-11
-2.2528
0.351808
1.82998e-11
-2.3404
0.366294
1.76328e-11
-2.43134
0.382022
7.64015e-12
-2.52585
0.399133
-1.03948e-12
-2.62417
0.417786
-1.89429e-11
-2.72655
0.438166
-3.2374e-11
-2.83323
0.460484
-4.95972e-11
-2.94445
0.484985
-5.85612e-11
-3.06044
0.51195
-6.68777e-11
-3.1814
0.541708
-7.4908e-11
-3.30746
0.574637
-9.88154e-11
-3.43864
0.611181
-1.71402e-10
-3.57485
0.651855
-3.15471e-10
-3.71571
0.697265
-5.94461e-10
-3.86055
0.74812
-9.81924e-10
-4.00812
0.805249
-1.52303e-09
-4.15646
0.869612
-2.04317e-09
-4.30258
0.942298
-2.5409e-09
-4.44212
1.02449
-2.71558e-09
-4.56904
1.11736
-2.40572e-09
-4.67537
1.22192
-1.86648e-09
-4.75122
1.33873
-8.45794e-10
-4.78569
1.46737
2.91882e-10
-4.7689
1.60596
1.2717e-09
-4.69447
1.75096
1.67339e-09
-4.56129
1.89755
1.52968e-09
-4.37351
2.04058
6.94244e-10
-4.13956
2.17548
-3.48751e-10
-3.86915
2.29921
-1.47815e-09
-3.57178
2.41014
-2.24649e-09
-3.25562
2.50787
-2.67067e-09
-2.92702
2.59284
-2.66881e-09
-2.59053
2.66591
-2.40792e-09
-2.24928
2.72807
-1.98366e-09
-1.90529
2.78027
-1.53247e-09
-1.55983
2.82331
-1.12825e-09
-1.21363
2.85783
-8.13483e-10
-0.867074
2.88431
-6.04662e-10
-0.520325
2.90308
-4.83365e-10
-0.173456
2.91431
-4.28225e-10
0.173461
2.91806
-2.99784e-10
0.52033
2.91431
-5.12799e-10
0.867079
2.90308
-5.17107e-10
1.21364
2.88431
-1.02633e-09
2.85783
-1.40037e-09
-0.2383
0.221365
5.05011e-11
-0.282015
0.222292
5.62025e-11
-0.325925
0.223393
3.34305e-11
-0.370062
0.22467
2.60036e-11
-0.414459
0.226128
2.69598e-11
-0.459149
0.227771
2.97705e-11
-0.504164
0.229604
3.07292e-11
-0.54954
0.231633
3.10485e-11
-0.595311
0.233864
3.0758e-11
-0.641515
0.236305
3.097e-11
-0.688189
0.238964
3.09899e-11
-0.735373
0.241849
3.166e-11
-0.783105
0.24497
3.20527e-11
-0.831429
0.248338
3.3122e-11
-0.880387
0.251966
3.38433e-11
-0.930026
0.255865
3.53077e-11
-0.980391
0.260051
3.64153e-11
-1.03153
0.264539
3.83508e-11
-1.0835
0.269347
3.99762e-11
-1.13635
0.274492
4.24983e-11
-1.19014
0.279997
4.48131e-11
-1.24493
0.285884
4.80438e-11
-1.30078
0.292177
5.12332e-11
-1.35775
0.298905
5.52683e-11
-1.41591
0.306098
5.95028e-11
-1.47534
0.31379
6.43776e-11
-1.53611
0.322017
6.97758e-11
-1.5983
0.33082
7.54154e-11
-1.66198
0.340245
8.1981e-11
-1.72726
0.35034
8.81214e-11
-1.79421
0.361162
9.56371e-11
-1.86293
0.372773
1.01698e-10
-1.93352
0.38524
1.09552e-10
-2.00607
0.39864
1.14472e-10
-2.08069
0.413058
1.2148e-10
-2.15747
0.428588
1.23644e-10
-2.23651
0.445337
1.28056e-10
-2.31791
0.463423
1.26162e-10
-2.40176
0.482979
1.27296e-10
-2.48813
0.504153
1.21541e-10
-2.57707
0.527112
1.21782e-10
-2.66863
0.552041
1.05529e-10
-2.76279
0.57915
1.23681e-10
-2.85951
0.608671
1.30723e-10
-2.95867
0.640863
1.50328e-10
-3.06005
0.676017
1.70782e-10
-3.16332
0.714452
1.89554e-10
-3.26799
0.756522
1.89506e-10
-3.37334
0.802617
1.49116e-10
-3.47838
0.853159
5.83948e-11
-3.58173
0.908602
-1.09988e-10
-3.68154
0.969423
-3.22979e-10
-3.77534
1.0361
-5.91411e-10
-3.85995
1.10909
-8.22218e-10
-3.93133
1.18874
-1.01837e-09
-3.98464
1.27523
-1.07854e-09
-4.01434
1.36843
-1.03734e-09
-4.0147
1.46773
-8.98987e-10
-3.98063
1.57188
-7.11982e-10
-3.90866
1.67899
-5.83901e-10
-3.7978
1.78668
-5.10476e-10
-3.64958
1.89236
-5.79628e-10
-3.46775
1.99365
-6.82652e-10
-3.25723
2.08869
-8.33853e-10
-3.02328
2.17619
-9.15722e-10
-2.77089
2.25548
-9.46017e-10
-2.50435
2.3263
-8.87196e-10
-2.22716
2.38871
-7.80808e-10
-1.94203
2.44295
-6.40886e-10
-1.65106
2.48929
-4.98294e-10
-1.35578
2.52804
-3.70594e-10
-1.05739
2.55944
-2.6696e-10
-0.756768
2.5837
-1.9897e-10
-0.454648
2.60096
-1.54582e-10
-0.151647
2.61131
-1.25647e-10
0.15165
2.61477
8.88142e-12
0.454652
2.61131
-2.76111e-10
0.756771
2.60096
-2.11436e-10
1.05739
2.5837
-6.84909e-10
2.55944
-8.71751e-10
-0.231888
0.263723
-3.38921e-11
-0.274391
0.264795
-4.23687e-11
-0.317065
0.266067
-4.22236e-11
-0.359939
0.267544
-5.22256e-11
-0.40304
0.26923
-4.83137e-11
-0.446398
0.271129
-4.33636e-11
-0.49004
0.273246
-4.1013e-11
-0.533996
0.275589
-4.02618e-11
-0.578297
0.278165
-4.0978e-11
-0.622972
0.280981
-4.15943e-11
-0.668055
0.284046
-4.29382e-11
-0.713576
0.28737
-4.37547e-11
-0.75957
0.290964
-4.52088e-11
-0.80607
0.294838
-4.59946e-11
-0.853111
0.299007
-4.73926e-11
-0.90073
0.303484
-4.80169e-11
-0.948963
0.308285
-4.91914e-11
-0.99785
0.313426
-4.95008e-11
-1.04743
0.318925
-5.02414e-11
-1.09774
0.324804
-5.00555e-11
-1.14883
0.331083
-5.0113e-11
-1.20073
0.337787
-4.92359e-11
-1.2535
0.344943
-4.83359e-11
-1.30717
0.352577
-4.65776e-11
-1.36179
0.360723
-4.44466e-11
-1.41742
0.369414
-4.16548e-11
-1.47409
0.378687
-3.8059e-11
-1.53185
0.388585
-3.41627e-11
-1.59076
0.399151
-2.8972e-11
-1.65085
0.410435
-2.4049e-11
-1.71218
0.422491
-1.73301e-11
-1.77479
0.435379
-1.17031e-11
-1.83871
0.449164
-3.85902e-12
-1.90399
0.463918
1.78056e-12
-1.97065
0.479718
9.85557e-12
-2.03871
0.496652
1.4366e-11
-2.10819
0.514813
2.1253e-11
-2.17907
0.534307
2.32596e-11
-2.25134
0.555246
2.74745e-11
-2.32494
0.577755
2.62168e-11
-2.3998
0.60197
2.74627e-11
-2.4758
0.628039
2.45362e-11
-2.55277
0.656122
2.52599e-11
-2.63049
0.686393
2.52878e-11
-2.70866
0.719037
3.01085e-11
-2.7869
0.754252
3.69778e-11
-2.86469
0.792247
4.43063e-11
-2.94141
0.83324
4.8721e-11
-3.01625
0.877454
3.74111e-11
-3.0882
0.925111
6.65984e-12
-3.15602
0.976426
-6.41682e-11
-3.2182
1.03159
-1.7041e-10
-3.27287
1.09077
-3.26888e-10
-3.31785
1.15407
-5.10292e-10
-3.35059
1.22148
-7.16559e-10
-3.36825
1.29289
-9.12638e-10
-3.36779
1.36798
-1.07853e-09
-3.34627
1.4462
-1.20058e-09
-3.30112
1.52674
-1.25522e-09
-3.23062
1.60849
-1.26756e-09
-3.13412
1.69018
-1.21419e-09
-3.01217
1.77042
-1.14377e-09
-2.86642
1.8479
-1.02792e-09
-2.69923
1.9215
-9.12768e-10
-2.51337
1.99033
-7.70663e-10
-2.31166
2.05377
-6.38129e-10
-2.09678
2.11142
-4.97609e-10
-1.87111
2.16305
-3.74715e-10
-1.63673
2.20857
-2.59316e-10
-1.39537
2.24794
-1.6415e-10
-1.14852
2.28119
-8.24975e-11
-0.89744
2.30835
-1.93661e-11
-0.643204
2.32946
2.52194e-11
-0.386784
2.34454
5.96802e-11
-0.129071
2.3536
9.5197e-11
0.129073
2.35662
2.31106e-10
0.386786
2.3536
-1.23344e-11
0.643207
2.34454
6.77138e-11
0.897442
2.32946
-3.62447e-10
2.30835
-5.03625e-10
-0.224312
0.304673
2.56533e-11
-0.265386
0.305868
3.31163e-11
-0.306605
0.307287
2.02728e-11
-0.347993
0.308932
2.07996e-11
-0.389572
0.310809
2.06976e-11
-0.431367
0.312923
2.08183e-11
-0.473401
0.31528
2.02168e-11
-0.515698
0.317887
1.96292e-11
-0.558283
0.32075
1.90139e-11
-0.60118
0.323878
1.87422e-11
-0.644413
0.32728
1.85207e-11
-0.68801
0.330966
1.8607e-11
-0.731994
0.334948
1.86454e-11
-0.776392
0.339236
1.89531e-11
-0.82123
0.343845
1.91643e-11
-0.866535
0.348789
1.96575e-11
-0.912333
0.354083
2.00632e-11
-0.958652
0.359745
2.07859e-11
-1.00552
0.365792
2.1476e-11
-1.05296
0.372245
2.25126e-11
-1.101
0.379127
2.36112e-11
-1.14968
0.386459
2.50542e-11
-1.199
0.394269
2.66961e-11
-1.24901
0.402585
2.86259e-11
-1.29972
0.411435
3.09404e-11
-1.35116
0.420855
3.34063e-11
-1.40335
0.430878
3.6495e-11
-1.45631
0.441545
3.94879e-11
-1.51006
0.452896
4.33904e-11
-1.5646
0.464978
4.68091e-11
-1.61995
0.47784
5.14574e-11
-1.67611
0.491535
5.50599e-11
-1.73307
0.506122
6.02105e-11
-1.79081
0.521662
6.35543e-11
-1.84932
0.538224
6.87055e-11
-1.90855
0.555881
7.10814e-11
-1.96844
0.57471
7.53681e-11
-2.02893
0.594797
7.59724e-11
-2.08992
0.616232
7.86017e-11
-2.15128
0.639112
7.65396e-11
-2.21284
0.663538
7.68009e-11
-2.27442
0.689619
7.22741e-11
-2.33577
0.717468
7.04634e-11
-2.39658
0.747204
6.54588e-11
-2.45649
0.778948
6.42761e-11
-2.51506
0.812822
6.04007e-11
-2.57176
0.848948
6.04447e-11
-2.62597
0.887444
5.62496e-11
-2.67693
0.92842
5.1115e-11
-2.72379
0.971971
3.42609e-11
-2.76554
1.01817
6.06828e-12
-2.80101
1.06707
-4.5409e-11
-2.82891
1.11867
-1.17496e-10
-2.84775
1.17292
-2.18308e-10
-2.85597
1.2297
-3.35283e-10
-2.85189
1.28881
-4.69672e-10
-2.83384
1.34993
-5.97189e-10
-2.80026
1.41263
-7.17515e-10
-2.74987
1.47634
-8.02825e-10
-2.68178
1.54041
-8.60467e-10
-2.59566
1.60406
-8.70612e-10
-2.49174
1.66649
-8.50443e-10
-2.37078
1.72694
-7.92325e-10
-2.23398
1.78469
-7.16178e-10
-2.0828
1.83915
-6.2306e-10
-1.91886
1.88983
-5.27714e-10
-1.74378
1.93634
-4.34256e-10
-1.55913
1.9784
-3.49008e-10
-1.36638
2.01582
-2.75143e-10
-1.1669
2.04845
-2.12199e-10
-0.961905
2.0762
-1.61832e-10
-0.752544
2.09899
-1.22093e-10
-0.539861
2.11678
-9.58134e-11
-0.324843
2.12952
-7.63379e-11
-0.108435
2.13719
-5.21667e-11
0.108437
2.13975
4.07874e-11
0.324845
2.13719
-8.07692e-11
0.539863
2.12952
-7.84594e-11
0.752546
2.11678
-3.22705e-10
2.09899
-4.68432e-10
-0.215836
0.344052
-4.19932e-11
-0.255314
0.345346
-4.6964e-11
-0.29491
0.346882
-4.05776e-11
-0.334642
0.348664
-4.33278e-11
-0.374529
0.350696
-4.10478e-11
-0.414589
0.352983
-3.89583e-11
-0.454839
0.355531
-3.81264e-11
-0.4953
0.358347
-3.81038e-11
-0.535989
0.361439
-3.88207e-11
-0.576925
0.364814
-3.95495e-11
-0.618126
0.368481
-4.0665e-11
-0.65961
0.37245
-4.15825e-11
-0.701396
0.376733
-4.28268e-11
-0.743501
0.381341
-4.38063e-11
-0.785943
0.386288
-4.50746e-11
-0.82874
0.391586
-4.60311e-11
-0.871907
0.397251
-4.72045e-11
-0.915462
0.4033
-4.80267e-11
-0.95942
0.40975
-4.89468e-11
-1.0038
0.416621
-4.94896e-11
-1.0486
0.423933
-4.99521e-11
-1.09385
0.43171
-5.00534e-11
-1.13956
0.439973
-4.98465e-11
-1.18572
0.448751
-4.93524e-11
-1.23236
0.45807
-4.82489e-11
-1.27947
0.467962
-4.70043e-11
-1.32704
0.478457
-4.47799e-11
-1.37509
0.489591
-4.26631e-11
-1.42359
0.5014
-3.91327e-11
-1.47254
0.513926
-3.60858e-11
-1.52191
0.52721
-3.11454e-11
-1.57167
0.541297
-2.72142e-11
-1.62179
0.556237
-2.08936e-11
-1.67221
0.572081
-1.6274e-11
-1.72287
0.588885
-8.79656e-12
-1.77369
0.606705
-3.88107e-12
-1.82459
0.625603
4.28208e-12
-1.87543
0.645645
8.90822e-12
-1.9261
0.666896
1.70891e-11
-1.97641
0.689426
2.07525e-11
-2.02618
0.713308
2.82877e-11
-2.07518
0.738615
3.05946e-11
-2.12313
0.76542
3.70841e-11
-2.16972
0.793796
3.84462e-11
-2.21459
0.823816
4.48355e-11
-2.25731
0.855545
4.59375e-11
-2.29741
0.889044
5.30276e-11
-2.33433
0.924365
5.44266e-11
-2.36745
0.961547
6.13723e-11
-2.39609
1.00061
6.01472e-11
-2.41948
1.04156
6.18263e-11
-2.43677
1.08436
5.04591e-11
-2.44705
1.12895
3.84478e-11
-2.44936
1.17523
9.16946e-12
-2.44272
1.22306
-2.0867e-11
-2.42613
1.27221
-6.6579e-11
-2.39865
1.32244
-1.06225e-10
-2.35942
1.3734
-1.52531e-10
-2.3078
1.42472
-1.81965e-10
-2.24332
1.47593
-2.07046e-10
-2.16582
1.52656
-2.08734e-10
-2.07543
1.5761
-2.00617e-10
-1.97257
1.62408
-1.71999e-10
-1.85788
1.67
-1.35734e-10
-1.73219
1.71347
-8.86256e-11
-1.59647
1.7541
-3.97596e-11
-1.45173
1.7916
9.87783e-12
-1.29902
1.8257
5.63025e-11
-1.13939
1.85619
9.73258e-11
-0.973852
1.88291
1.32941e-10
-0.803381
1.90573
1.61167e-10
-0.628928
1.92454
1.83248e-10
-0.451409
1.93926
1.9752e-10
-0.271713
1.94983
2.12894e-10
-0.0907156
1.95619
2.40738e-10
0.0907168
1.95832
3.40458e-10
0.271714
1.95619
2.31024e-10
0.45141
1.94983
3.43615e-10
0.628929
1.93926
1.57194e-10
1.92454
1.3762e-10
-0.206644
0.381727
7.48823e-12
-0.244396
0.383098
1.52616e-11
-0.282238
0.384724
1.02754e-11
-0.320183
0.386609
1.66456e-11
-0.358245
0.388758
1.43589e-11
-0.396437
0.391176
1.2776e-11
-0.434774
0.393868
1.13169e-11
-0.473267
0.39684
1.02917e-11
-0.511929
0.400101
9.64827e-12
-0.550773
0.403658
9.16669e-12
-0.589812
0.407519
8.90286e-12
-0.629055
0.411694
8.64956e-12
-0.668515
0.416193
8.54607e-12
-0.708202
0.421028
8.42485e-12
-0.748125
0.426211
8.47861e-12
-0.788294
0.431755
8.43697e-12
-0.828717
0.437673
8.47807e-12
-0.869399
0.443982
8.36667e-12
-0.910346
0.450697
8.37546e-12
-0.951562
0.457837
8.39597e-12
-0.993049
0.46542
8.87738e-12
-1.03481
0.473467
9.22543e-12
-1.07683
0.481999
9.93244e-12
-1.11912
0.491039
1.04594e-11
-1.16166
0.500611
1.15289e-11
-1.20444
0.510743
1.23242e-11
-1.24745
0.521462
1.38432e-11
-1.29065
0.532797
1.49188e-11
-1.33403
0.544781
1.6928e-11
-1.37755
0.557446
1.82412e-11
-1.42117
0.570827
2.0722e-11
-1.46484
0.584961
2.2154e-11
-1.50849
0.599888
2.49944e-11
-1.55205
0.615646
2.63163e-11
-1.59545
0.63228
2.93752e-11
-1.63857
0.649832
3.02631e-11
-1.68132
0.668347
3.30379e-11
-1.72354
0.687872
3.30774e-11
-1.7651
0.708453
3.51777e-11
-1.80581
0.730137
3.38314e-11
-1.84548
0.752971
3.47439e-11
-1.88386
0.777
3.0499e-11
-1.92071
0.802266
3.09298e-11
-1.95572
0.828811
2.56967e-11
-1.98858
0.856669
2.35095e-11
-2.0189
0.885869
1.68107e-11
-2.04629
0.916433
1.37332e-11
-2.07029
0.948369
6.19453e-12
-2.09042
0.981676
2.79932e-12
-2.10615
1.01634
-5.39082e-12
-2.1169
1.05231
-9.52761e-12
-2.12209
1.08954
-1.95747e-11
-2.12108
1.12794
-2.62819e-11
-2.11325
1.16741
-4.02383e-11
-2.09798
1.20778
-5.11934e-11
-2.07465
1.24889
-6.93594e-11
-2.04272
1.29051
-8.32198e-11
-2.00173
1.33241
-1.01763e-10
-1.95131
1.37429
-1.13315e-10
-1.89123
1.41585
-1.2553e-10
-1.82143
1.45676
-1.28819e-10
-1.74201
1.49668
-1.29648e-10
-1.65321
1.53528
-1.22238e-10
-1.55545
1.57224
-1.11554e-10
-1.44922
1.60725
-9.57214e-11
-1.33516
1.64004
-7.77083e-11
-1.21393
1.67037
-5.84174e-11
-1.08627
1.69803
-3.88475e-11
-0.952912
1.72283
-2.12428e-11
-0.814627
1.74462
-5.24432e-12
-0.672177
1.76328
6.64715e-12
-0.526327
1.77869
1.53268e-11
-0.377834
1.79077
1.86687e-11
-0.227456
1.79945
2.09328e-11
-0.0759445
1.80468
2.85087e-11
0.0759454
1.80643
6.9072e-11
0.227457
1.80468
6.00385e-11
0.377835
1.79945
7.29472e-11
0.526328
1.79077
2.9904e-11
1.77869
-1.80611e-11
-0.196907
0.417602
-4.50171e-11
-0.232835
0.419025
-4.70743e-11
-0.268825
0.420714
-3.72943e-11
-0.304887
0.422671
-3.46027e-11
-0.341029
0.424901
-3.33002e-11
-0.377262
0.427408
-3.30015e-11
-0.413591
0.430197
-3.31575e-11
-0.450027
0.433276
-3.36826e-11
-0.486575
0.436649
-3.43439e-11
-0.523243
0.440326
-3.51017e-11
-0.560037
0.444313
-3.58518e-11
-0.596962
0.448619
-3.64897e-11
-0.634024
0.453255
-3.70975e-11
-0.671225
0.45823
-3.73356e-11
-0.708569
0.463555
-3.966e-11
-0.746057
0.469242
-4.16427e-11
-0.783689
0.475305
-4.31182e-11
-0.821463
0.481756
-4.34326e-11
-0.859377
0.488611
-4.22501e-11
-0.897424
0.495885
-4.22276e-11
-0.935598
0.503594
-4.405e-11
-0.973887
0.511757
-4.55727e-11
-1.01228
0.520391
-4.53917e-11
-1.05076
0.529517
-4.56082e-11
-1.0893
0.539156
-4.51383e-11
-1.12789
0.54933
-4.49782e-11
-1.16649
0.560061
-4.37945e-11
-1.20507
0.571375
-4.30719e-11
-1.24358
0.583296
-4.09579e-11
-1.28199
0.595852
-3.95442e-11
-1.32023
0.609069
-3.63582e-11
-1.35825
0.622976
-3.4265e-11
-1.39596
0.637603
-3.00651e-11
-1.43329
0.65298
-2.7343e-11
-1.47015
0.669137
-2.20211e-11
-1.50643
0.686106
-1.87499e-11
-1.542
0.703918
-1.24508e-11
-1.57673
0.722602
-8.83873e-12
-1.61046
0.74219
-1.78212e-12
-1.64304
0.762711
1.90952e-12
-1.67426
0.78419
9.44158e-12
-1.70391
0.806653
1.29708e-11
-1.73176
0.83012
2.06721e-11
-1.75756
0.854608
2.38743e-11
-1.78102
0.880128
3.17859e-11
-1.80184
0.906685
3.47678e-11
-1.81968
0.934275
4.30433e-11
-1.83419
0.962884
4.6257e-11
-1.84501
0.992489
5.53472e-11
-1.85172
1.02305
5.9301e-11
-1.85393
1.05452
6.95111e-11
-1.8512
1.08682
7.43641e-11
-1.84313
1.11987
8.54427e-11
-1.82928
1.15356
9.07704e-11
-1.80927
1.18776
1.0192e-10
-1.78271
1.22233
1.07086e-10
-1.74929
1.25709
1.17573e-10
-1.70873
1.29185
1.22454e-10
-1.66085
1.32641
1.32209e-10
-1.60553
1.36053
1.37414e-10
-1.54275
1.39399
1.46889e-10
-1.47261
1.42654
1.5316e-10
-1.39529
1.45796
1.62674e-10
-1.31105
1.488
1.70158e-10
-1.22025
1.51645
1.79461e-10
-1.12332
1.54311
1.87473e-10
-1.02073
1.56778
1.95742e-10
-0.912995
1.5903
2.02887e-10
-0.800679
1.61052
2.08832e-10
-0.684355
1.6283
2.13354e-10
-0.564619
1.64354
2.15472e-10
-0.442076
1.65614
2.15567e-10
-0.317341
1.66603
2.13124e-10
-0.191035
1.67314
2.12201e-10
-0.0637837
1.67743
2.18181e-10
0.0637843
1.67886
2.53441e-10
0.191036
1.67743
2.34653e-10
0.317342
1.67314
3.04116e-10
0.442077
1.66603
2.79431e-10
1.65614
2.96214e-10
-0.186788
0.451607
1.6013e-12
-0.220825
0.453062
9.0681e-12
-0.254899
0.454788
8.1162e-12
-0.289016
0.456787
1.51849e-11
-0.323178
0.459063
1.37139e-11
-0.357392
0.461621
1.10771e-11
-0.39166
0.464466
9.1603e-12
-0.425986
0.467602
7.84602e-12
-0.460372
0.471036
7.14592e-12
-0.494821
0.474775
6.47403e-12
-0.529333
0.478825
6.1453e-12
-0.563909
0.483195
5.64978e-12
-0.598547
0.487893
5.44709e-12
-0.633246
0.492929
5.02298e-12
-0.668003
0.498311
4.93353e-12
-0.702812
0.504052
4.52359e-12
-0.737667
0.51016
4.369e-12
-0.772561
0.51665
3.80759e-12
-0.807482
0.523532
3.61464e-12
-0.842419
0.530822
3.14537e-12
-0.877357
0.538531
3.23515e-12
-0.912277
0.546677
2.90999e-12
-0.947159
0.555273
3.10989e-12
-0.981979
0.564337
2.83264e-12
-1.01671
0.573886
3.22511e-12
-1.05132
0.583937
3.06026e-12
-1.08576
0.594509
3.70562e-12
-1.12001
0.60562
3.67987e-12
-1.154
0.617292
4.62648e-12
-1.1877
0.629544
4.73653e-12
-1.22102
0.642396
5.9995e-12
-1.25392
0.65587
6.22267e-12
-1.2863
0.669986
7.79052e-12
-1.31809
0.684767
8.06357e-12
-1.34918
0.700233
9.8933e-12
-1.37948
0.716404
1.0125e-11
-1.40886
0.7333
1.21274e-11
-1.4372
0.750939
1.21929e-11
-1.46435
0.76934
1.42444e-11
-1.49015
0.788516
1.40062e-11
-1.51444
0.80848
1.59451e-11
-1.53703
0.829243
1.53116e-11
-1.55772
0.850809
1.70781e-11
-1.57629
0.87318
1.59736e-11
-1.59252
0.896351
1.75468e-11
-1.60615
0.920313
1.61282e-11
-1.61692
0.945047
1.76953e-11
-1.62456
0.970528
1.63052e-11
-1.62879
0.996721
1.82454e-11
-1.62932
1.02358
1.7388e-11
-1.62586
1.05105
2.01566e-11
-1.6181
1.07906
2.03132e-11
-1.60576
1.10753
2.42175e-11
-1.58856
1.13636
2.56235e-11
-1.56625
1.16545
3.06319e-11
-1.5386
1.19467
3.31787e-11
-1.5054
1.22389
3.89231e-11
-1.46651
1.25296
4.22662e-11
-1.42182
1.28172
4.8227e-11
-1.3713
1.31
5.19867e-11
-1.31495
1.33764
5.77027e-11
-1.25285
1.36445
6.15917e-11
-1.18516
1.39026
6.6769e-11
-1.11207
1.41491
7.05926e-11
-1.03384
1.43822
7.50975e-11
-0.950785
1.46005
7.86761e-11
-0.863255
1.48025
8.23274e-11
-0.77164
1.49868
8.51719e-11
-0.676361
1.51524
8.73783e-11
-0.577863
1.5298
8.84917e-11
-0.476609
1.54229
8.8122e-11
-0.37308
1.55261
8.61951e-11
-0.267768
1.56072
8.22936e-11
-0.161176
1.56655
7.7547e-11
-0.0538113
1.57006
7.40182e-11
0.0538118
1.57124
7.90227e-11
0.161176
1.57006
9.61356e-11
0.267769
1.56655
1.00733e-10
0.37308
1.56072
1.23256e-10
1.55262
1.1591e-10
-0.176443
0.483705
-3.13559e-11
-0.208553
0.485172
-3.36238e-11
-0.240676
0.486911
-2.39831e-11
-0.272813
0.488925
-2.20504e-11
-0.304967
0.491217
-2.17601e-11
-0.337136
0.49379