/*--------------------------------*- C++ -*----------------------------------*\
| =========                 |                                                 |
| \\      /  F ield         | OpenFOAM: The Open Source CFD Toolbox           |
|  \\    /   O peration     | Version:  2306                                  |
|   \\  /    A nd           | Website:  www.openfoam.com                      |
|    \\/     M anipulation  |                                                 |
\*---------------------------------------------------------------------------*/
FoamFile
{
    version     2.0;
    format      ascii;
    arch        "LSB;label=32;scalar=64";
    class       volVectorField;
    location    "50";
    object      U;
}
// * * * * * * * * * * * * * * * * * * * * * * * * * * * * * * * * * * * * * //

dimensions      [0 1 -1 0 0 0 0];

internalField   nonuniform List<vector> 
14400
(
(-0.00267063 9.79305e-05 -1.23993e-11)
(-0.00320956 9.81134e-05 -1.18832e-11)
(-0.00375098 9.8273e-05 -7.88952e-12)
(-0.00429527 9.84112e-05 -8.18509e-12)
(-0.00484283 9.85296e-05 -8.28173e-12)
(-0.00539406 9.8629e-05 -8.66932e-12)
(-0.00594939 9.87084e-05 -8.94303e-12)
(-0.00650924 9.87656e-05 -9.39969e-12)
(-0.00707405 9.87967e-05 -9.72266e-12)
(-0.00764429 9.87966e-05 -1.02024e-11)
(-0.00822044 9.87585e-05 -1.05601e-11)
(-0.00880298 9.86743e-05 -1.10644e-11)
(-0.00939242 9.85338e-05 -1.14696e-11)
(-0.0099893 9.83254e-05 -1.19941e-11)
(-0.0105942 9.80352e-05 -1.24505e-11)
(-0.0112076 9.76467e-05 -1.29784e-11)
(-0.0118302 9.71411e-05 -1.34802e-11)
(-0.0124625 9.64961e-05 -1.39827e-11)
(-0.0131053 9.56858e-05 -1.45134e-11)
(-0.0137593 9.468e-05 -1.49496e-11)
(-0.014425 9.34434e-05 -1.548e-11)
(-0.0151033 9.19349e-05 -1.57959e-11)
(-0.015795 9.01062e-05 -1.62802e-11)
(-0.0165009 8.79012e-05 -1.64085e-11)
(-0.0172219 8.52538e-05 -1.67807e-11)
(-0.0179588 8.20868e-05 -1.66424e-11)
(-0.0187126 7.83096e-05 -1.6812e-11)
(-0.0194844 7.3816e-05 -1.63212e-11)
(-0.0202751 6.84815e-05 -1.61727e-11)
(-0.0210859 6.21601e-05 -1.52488e-11)
(-0.021918 5.46809e-05 -1.46463e-11)
(-0.0227725 4.5844e-05 -1.32385e-11)
(-0.0236508 3.54165e-05 -1.2044e-11)
(-0.0245542 2.31281e-05 -1.01723e-11)
(-0.0254842 8.66656e-06 -8.27564e-12)
(-0.0264424 -8.32519e-06 -6.07443e-12)
(-0.0274304 -2.8251e-05 -3.4003e-12)
(-0.0284501 -5.15599e-05 -1.10517e-12)
(-0.0295037 -7.87378e-05 2.51428e-12)
(-0.0305935 -0.00011029 4.74107e-12)
(-0.0317225 -0.000146708 9.97487e-12)
(-0.0328944 -0.000188402 1.22782e-11)
(-0.034114 -0.000235594 2.077e-11)
(-0.0353877 -0.000288125 2.29489e-11)
(-0.0367246 -0.00034511 3.60724e-11)
(-0.0381375 -0.000404334 3.37448e-11)
(-0.0396454 -0.000461157 4.5618e-11)
(-0.0412769 -0.000506533 2.4302e-11)
(-0.043076 -0.000523447 7.51222e-12)
(-0.0451113 -0.000480567 -5.09654e-11)
(-0.0474908 -0.000320958 -1.4586e-10)
(-0.0503857 5.79999e-05 -2.28895e-10)
(-0.0540571 0.000838985 -4.1436e-10)
(-0.0588954 0.00233983 -4.76797e-10)
(-0.0655817 0.00511964 -6.63975e-10)
(-0.075441 0.0102321 -8.00528e-10)
(-0.0899852 0.0189904 -1.12425e-09)
(-0.109909 0.0300432 -1.0985e-09)
(-0.134134 0.0377894 -2.23963e-09)
(-0.15421 0.0308011 -7.65922e-10)
(-0.246078 0.0451665 -3.77184e-10)
(-0.254175 0.359809 1.4135e-09)
(-0.192751 0.456986 3.75685e-09)
(-0.160754 0.481493 3.64757e-09)
(-0.141837 0.487663 3.50976e-09)
(-0.125004 0.489228 3.00361e-09)
(-0.109264 0.489679 2.30122e-09)
(-0.0946619 0.489976 1.70423e-09)
(-0.0809999 0.490332 1.14071e-09)
(-0.0680888 0.490744 8.14921e-10)
(-0.0557928 0.491173 5.79824e-10)
(-0.0440018 0.491582 4.97731e-10)
(-0.0326175 0.491949 4.88227e-10)
(-0.0215504 0.492255 4.9413e-10)
(-0.0107188 0.492478 5.95773e-10)
(-2.89696e-07 0.492566 5.57161e-10)
(0.0107182 0.492478 9.13084e-10)
(0.0215498 0.492255 -3.02537e-10)
(0.0326168 0.491949 3.46718e-09)
(0.0440011 0.491583 -9.64712e-10)
(-0.00657772 0.00283567 -1.127e-11)
(-0.00790512 0.00284802 -1.16922e-11)
(-0.00923896 0.00286249 -8.0173e-12)
(-0.0105803 0.00287912 -8.32459e-12)
(-0.0119303 0.00289797 -8.53185e-12)
(-0.0132901 0.00291909 -8.88597e-12)
(-0.0146609 0.00294255 -9.26047e-12)
(-0.0160438 0.00296844 -9.67661e-12)
(-0.0174402 0.00299683 -1.01038e-11)
(-0.0188512 0.00302781 -1.05487e-11)
(-0.0202783 0.00306148 -1.10149e-11)
(-0.0217229 0.00309793 -1.14926e-11)
(-0.0231864 0.0031373 -1.20067e-11)
(-0.0246703 0.0031797 -1.25158e-11)
(-0.0261764 0.00322527 -1.30759e-11)
(-0.0277062 0.00327415 -1.36031e-11)
(-0.0292616 0.0033265 -1.41957e-11)
(-0.0308444 0.0033825 -1.4716e-11)
(-0.0324568 0.00344233 -1.53142e-11)
(-0.0341007 0.00350621 -1.57903e-11)
(-0.0357786 0.00357434 -1.63511e-11)
(-0.0374927 0.00364697 -1.67311e-11)
(-0.0392458 0.00372435 -1.71917e-11)
(-0.0410405 0.00380677 -1.74076e-11)
(-0.0428799 0.00389453 -1.7682e-11)
(-0.0447672 0.00398795 -1.76498e-11)
(-0.0467058 0.0040874 -1.76259e-11)
(-0.0486996 0.00419326 -1.72482e-11)
(-0.0507526 0.00430595 -1.67892e-11)
(-0.0528692 0.00442595 -1.59648e-11)
(-0.0550544 0.00455377 -1.49184e-11)
(-0.0573134 0.00468998 -1.35641e-11)
(-0.0596522 0.00483523 -1.17884e-11)
(-0.0620771 0.00499028 -9.87933e-12)
(-0.0645955 0.00515599 -7.28663e-12)
(-0.0672152 0.00533343 -4.90487e-12)
(-0.0699452 0.0055239 -1.49328e-12)
(-0.0727957 0.00572905 1.17292e-12)
(-0.0757782 0.00595104 5.41563e-12)
(-0.0789056 0.00619277 8.24135e-12)
(-0.0821932 0.0064582 1.37794e-11)
(-0.0856584 0.0067529 1.715e-11)
(-0.0893219 0.00708478 2.50943e-11)
(-0.0932081 0.00746532 2.88512e-11)
(-0.0973463 0.00791138 4.09071e-11)
(-0.101772 0.00844818 4.21031e-11)
(-0.106531 0.009114 5.25979e-11)
(-0.111677 0.00996771 3.83104e-11)
(-0.117282 0.0111007 2.00552e-11)
(-0.123439 0.0126547 -2.97552e-11)
(-0.130269 0.0148478 -1.28495e-10)
(-0.137932 0.0180079 -2.15606e-10)
(-0.146635 0.0226121 -4.04778e-10)
(-0.156656 0.0293206 -4.99182e-10)
(-0.168374 0.038985 -6.8824e-10)
(-0.182114 0.0526081 -7.94696e-10)
(-0.197957 0.0715011 -8.75367e-10)
(-0.21627 0.0985029 -9.93152e-10)
(-0.238576 0.138882 -8.31757e-10)
(-0.26723 0.195159 -7.78525e-10)
(-0.300151 0.257213 6.98898e-11)
(-0.305162 0.316994 7.33345e-10)
(-0.273367 0.358605 1.34912e-09)
(-0.238509 0.386561 1.52799e-09)
(-0.208812 0.404876 1.481e-09)
(-0.182838 0.417112 1.33492e-09)
(-0.159535 0.425672 9.8821e-10)
(-0.138272 0.431918 7.75561e-10)
(-0.118537 0.436621 4.91388e-10)
(-0.0999373 0.440238 3.75394e-10)
(-0.0821866 0.443049 2.49959e-10)
(-0.0650703 0.445231 2.33313e-10)
(-0.048421 0.446891 2.13908e-10)
(-0.0321036 0.448093 2.37425e-10)
(-0.0160145 0.448851 2.56812e-10)
(3.57026e-08 0.449119 2.82536e-10)
(0.0160146 0.448851 3.39892e-10)
(0.0321037 0.448093 1.5388e-10)
(0.048421 0.446891 7.63488e-10)
(0.0650704 0.445231 3.89973e-10)
(-0.00828814 0.00708866 -1.21231e-11)
(-0.00996036 0.00712001 -1.08638e-11)
(-0.0116406 0.00715705 -7.74732e-12)
(-0.0133303 0.00719987 -7.89424e-12)
(-0.0150309 0.00724861 -8.09427e-12)
(-0.0167438 0.00730343 -8.38095e-12)
(-0.0184706 0.00736451 -8.74053e-12)
(-0.0202127 0.00743205 -9.09681e-12)
(-0.0219719 0.00750628 -9.50988e-12)
(-0.0237497 0.00758745 -9.89602e-12)
(-0.025548 0.00767584 -1.03502e-11)
(-0.0273684 0.00777177 -1.07682e-11)
(-0.0292129 0.00787557 -1.12695e-11)
(-0.0310835 0.00798762 -1.17172e-11)
(-0.0329822 0.00810833 -1.22618e-11)
(-0.0349113 0.00823815 -1.27277e-11)
(-0.036873 0.00837758 -1.33012e-11)
(-0.0388699 0.00852718 -1.37642e-11)
(-0.0409045 0.00868754 -1.434e-11)
(-0.0429796 0.00885933 -1.47679e-11)
(-0.0450982 0.00904329 -1.5304e-11)
(-0.0472635 0.00924021 -1.56519e-11)
(-0.0494788 0.00945099 -1.60876e-11)
(-0.0517479 0.00967662 -1.62962e-11)
(-0.0540746 0.00991819 -1.65487e-11)
(-0.0564633 0.0101769 -1.65442e-11)
(-0.0589187 0.0104542 -1.65069e-11)
(-0.0614457 0.0107514 -1.62034e-11)
(-0.0640498 0.0110704 -1.57472e-11)
(-0.0667371 0.011413 -1.50551e-11)
(-0.0695143 0.0117814 -1.40376e-11)
(-0.0723886 0.0121781 -1.28818e-11)
(-0.075368 0.0126058 -1.11713e-11)
(-0.0784615 0.0130678 -9.52621e-12)
(-0.0816791 0.0135679 -7.04433e-12)
(-0.0850319 0.0141104 -4.98059e-12)
(-0.0885324 0.0147005 -1.74838e-12)
(-0.0921945 0.0153444 5.43026e-13)
(-0.0960341 0.0160496 4.4276e-12)
(-0.100069 0.0168253 6.71098e-12)
(-0.10432 0.0176825 1.12873e-11)
(-0.108809 0.0186357 1.34744e-11)
(-0.113564 0.0197028 1.92612e-11)
(-0.118613 0.0209074 2.11531e-11)
(-0.12399 0.0222801 2.86571e-11)
(-0.129735 0.0238627 2.81463e-11)
(-0.135888 0.0257119 3.38727e-11)
(-0.142497 0.0279075 2.35053e-11)
(-0.149613 0.0305628 1.13184e-11)
(-0.157285 0.0338403 -1.99613e-11)
(-0.16556 0.0379731 -8.04651e-11)
(-0.174473 0.0432905 -1.34428e-10)
(-0.184032 0.0502441 -2.50943e-10)
(-0.194207 0.059426 -2.98973e-10)
(-0.204901 0.0715731 -3.97066e-10)
(-0.215913 0.0875643 -4.22116e-10)
(-0.226895 0.1084 -4.16662e-10)
(-0.237149 0.134851 -3.95251e-10)
(-0.245278 0.166477 -2.57081e-10)
(-0.249755 0.201631 -1.59868e-10)
(-0.249108 0.23793 6.15264e-11)
(-0.24103 0.273204 1.8828e-10)
(-0.226184 0.30313 3.34994e-10)
(-0.208316 0.327504 3.77402e-10)
(-0.189464 0.346603 3.85617e-10)
(-0.170478 0.36123 3.38588e-10)
(-0.151777 0.372411 2.65356e-10)
(-0.133519 0.381027 2.06226e-10)
(-0.115731 0.387733 1.43361e-10)
(-0.0983814 0.392986 1.0906e-10)
(-0.0814161 0.397103 8.03863e-11)
(-0.0647699 0.400292 7.26164e-11)
(-0.0483733 0.402694 6.79305e-11)
(-0.0321584 0.404392 7.22483e-11)
(-0.0160702 0.405422 7.58219e-11)
(1.56365e-07 0.405772 8.29356e-11)
(0.0160705 0.405422 9.5942e-11)
(0.0321587 0.404392 5.63998e-11)
(0.0483736 0.402694 1.90843e-10)
(0.0647702 0.400292 1.25735e-10)
(-0.00875834 0.011751 -6.64049e-12)
(-0.0105249 0.0118027 -7.35296e-12)
(-0.0122998 0.0118639 -5.06163e-12)
(-0.0140843 0.0119348 -5.34019e-12)
(-0.01588 0.0120157 -5.52094e-12)
(-0.0176885 0.0121069 -5.74633e-12)
(-0.0195111 0.0122085 -6.02007e-12)
(-0.0213496 0.012321 -6.27668e-12)
(-0.0232056 0.0124447 -6.5951e-12)
(-0.0250809 0.01258 -6.87353e-12)
(-0.0269771 0.0127276 -7.22948e-12)
(-0.0288962 0.0128877 -7.53201e-12)
(-0.03084 0.0130612 -7.92852e-12)
(-0.0328107 0.0132485 -8.25241e-12)
(-0.0348103 0.0134504 -8.68517e-12)
(-0.0368411 0.0136678 -9.02058e-12)
(-0.0389055 0.0139013 -9.477e-12)
(-0.0410059 0.0141521 -9.80661e-12)
(-0.043145 0.0144211 -1.02638e-11)
(-0.0453256 0.0147095 -1.05612e-11)
(-0.0475507 0.0150186 -1.09828e-11)
(-0.0498235 0.0153498 -1.12108e-11)
(-0.0521475 0.0157047 -1.15439e-11)
(-0.0545262 0.016085 -1.1653e-11)
(-0.0569637 0.0164926 -1.18254e-11)
(-0.0594642 0.0169298 -1.17537e-11)
(-0.0620323 0.0173988 -1.16719e-11)
(-0.0646729 0.0179025 -1.1347e-11)
(-0.0673915 0.0184438 -1.08977e-11)
(-0.0701939 0.0190262 -1.02427e-11)
(-0.0730864 0.0196535 -9.30012e-12)
(-0.0760761 0.0203302 -8.24708e-12)
(-0.0791706 0.0210614 -6.69126e-12)
(-0.0823783 0.0218527 -5.20588e-12)
(-0.0857083 0.0227108 -2.95595e-12)
(-0.0891709 0.0236435 -1.07129e-12)
(-0.0927773 0.0246598 1.87531e-12)
(-0.0965397 0.0257701 4.0374e-12)
(-0.100472 0.0269869 7.5981e-12)
(-0.104589 0.0283249 9.85189e-12)
(-0.108908 0.0298018 1.39472e-11)
(-0.113446 0.0314386 1.63296e-11)
(-0.118225 0.0332611 2.12762e-11)
(-0.123264 0.0353007 2.36946e-11)
(-0.128589 0.0375961 2.96246e-11)
(-0.134223 0.0401954 3.1549e-11)
(-0.140189 0.0431597 3.68795e-11)
(-0.146513 0.0465668 3.5636e-11)
(-0.15321 0.0505178 3.28366e-11)
(-0.160291 0.0551451 2.39163e-11)
(-0.167747 0.0606228 -7.16934e-13)
(-0.175541 0.0671784 -1.83439e-11)
(-0.183592 0.0751038 -6.79262e-11)
(-0.19175 0.0847599 -8.6166e-11)
(-0.199777 0.096571 -1.27128e-10)
(-0.207319 0.110998 -1.31582e-10)
(-0.213863 0.128457 -1.17802e-10)
(-0.218715 0.149108 -9.84179e-11)
(-0.221087 0.172591 -2.78085e-11)
(-0.220274 0.197879 1.08218e-11)
(-0.215913 0.223483 9.02477e-11)
(-0.208032 0.247955 1.23655e-10)
(-0.197181 0.269939 1.61638e-10)
(-0.184194 0.288959 1.65726e-10)
(-0.1698 0.304958 1.59163e-10)
(-0.154586 0.318167 1.39907e-10)
(-0.138977 0.32897 1.14132e-10)
(-0.123233 0.337776 9.25206e-11)
(-0.1075 0.344941 7.12827e-11)
(-0.091853 0.350747 5.88801e-11)
(-0.0763209 0.355405 4.902e-11)
(-0.0609053 0.359071 4.58465e-11)
(-0.0455909 0.361851 4.42119e-11)
(-0.0303552 0.363812 4.54184e-11)
(-0.0151814 0.36499 4.74892e-11)
(1.41475e-07 0.365386 4.92525e-11)
(0.0151817 0.36499 5.85022e-11)
(0.0303555 0.363812 2.67789e-11)
(0.0455912 0.361851 1.28708e-10)
(0.0609056 0.359071 4.078e-11)
(-0.00875489 0.016486 -9.20449e-12)
(-0.0105201 0.0165575 -7.822e-12)
(-0.0122931 0.0166424 -5.70847e-12)
(-0.0140753 0.0167408 -5.77528e-12)
(-0.0158682 0.0168532 -5.91007e-12)
(-0.0176731 0.0169797 -6.09309e-12)
(-0.0194915 0.017121 -6.33405e-12)
(-0.021325 0.0172774 -6.57265e-12)
(-0.023175 0.0174494 -6.8571e-12)
(-0.0250432 0.0176377 -7.12357e-12)
(-0.0269313 0.0178429 -7.44345e-12)
(-0.0288409 0.0180657 -7.73627e-12)
(-0.030774 0.0183069 -8.09335e-12)
(-0.0327322 0.0185675 -8.40852e-12)
(-0.0347178 0.0188484 -8.79843e-12)
(-0.0367325 0.0191506 -9.12681e-12)
(-0.0387788 0.0194754 -9.53863e-12)
(-0.0408587 0.0198241 -9.86515e-12)
(-0.0429747 0.0201981 -1.02795e-11)
(-0.0451294 0.020599 -1.05816e-11)
(-0.0473254 0.0210286 -1.0968e-11)
(-0.0495655 0.0214888 -1.1214e-11)
(-0.0518529 0.0219817 -1.15289e-11)
(-0.0541906 0.0225097 -1.16774e-11)
(-0.0565821 0.0230756 -1.18617e-11)
(-0.059031 0.0236821 -1.18621e-11)
(-0.0615413 0.0243326 -1.1842e-11)
(-0.0641172 0.0250307 -1.16368e-11)
(-0.0667631 0.0257805 -1.13262e-11)
(-0.0694838 0.0265865 -1.08578e-11)
(-0.0722845 0.0274539 -1.01669e-11)
(-0.0751706 0.0283886 -9.38945e-12)
(-0.0781483 0.029397 -8.24263e-12)
(-0.0812238 0.0304867 -7.14301e-12)
(-0.0844041 0.031666 -5.50889e-12)
(-0.0876964 0.0329447 -4.13489e-12)
(-0.0911086 0.0343339 -2.06477e-12)
(-0.094649 0.0358464 -5.46849e-13)
(-0.0983266 0.0374968 1.79349e-12)
(-0.102151 0.0393023 3.23814e-12)
(-0.10613 0.0412828 5.61468e-12)
(-0.110276 0.0434614 6.7854e-12)
(-0.114598 0.0458651 8.98473e-12)
(-0.119104 0.048526 9.72828e-12)
(-0.123804 0.0514817 1.15793e-11)
(-0.128705 0.0547766 1.16848e-11)
(-0.13381 0.0584639 1.25476e-11)
(-0.139117 0.0626071 1.12642e-11)
(-0.14462 0.0672827 8.81845e-12)
(-0.150299 0.0725829 4.91694e-12)
(-0.156116 0.078619 -4.57709e-12)
(-0.162012 0.0855244 -1.12343e-11)
(-0.16789 0.0934553 -2.75448e-11)
(-0.173609 0.102588 -3.37406e-11)
(-0.178965 0.113107 -4.41508e-11)
(-0.183682 0.125183 -4.39114e-11)
(-0.187401 0.138932 -3.23515e-11)
(-0.189696 0.154344 -2.15454e-11)
(-0.190132 0.171192 1.05709e-11)
(-0.188364 0.188985 2.80029e-11)
(-0.184231 0.207027 5.91729e-11)
(-0.177796 0.224577 7.21749e-11)
(-0.169332 0.24099 8.46288e-11)
(-0.159225 0.255868 8.63954e-11)
(-0.14787 0.269023 8.09919e-11)
(-0.135623 0.280436 7.47008e-11)
(-0.122776 0.290211 6.25612e-11)
(-0.109542 0.298502 5.53623e-11)
(-0.0960687 0.305472 4.5443e-11)
(-0.0824562 0.311268 4.14518e-11)
(-0.0687665 0.316009 3.65107e-11)
(-0.0550369 0.31979 3.58091e-11)
(-0.0412878 0.322679 3.48163e-11)
(-0.0275305 0.324723 3.55001e-11)
(-0.0137788 0.325946 3.67578e-11)
(1.02108e-07 0.326356 3.74663e-11)
(0.013779 0.325946 4.15448e-11)
(0.0275307 0.324723 2.49965e-11)
(0.041288 0.322679 7.63772e-11)
(0.0550372 0.31979 3.98875e-11)
(-0.00859133 0.0211502 -3.74301e-12)
(-0.0103226 0.0212401 -4.22932e-12)
(-0.012061 0.0213468 -2.88879e-12)
(-0.0138077 0.0214706 -3.08527e-12)
(-0.0155641 0.021612 -3.19643e-12)
(-0.0173315 0.0217713 -3.32823e-12)
(-0.0191111 0.021949 -3.48635e-12)
(-0.0209044 0.0221458 -3.63361e-12)
(-0.0227126 0.0223623 -3.82339e-12)
(-0.0245373 0.0225991 -3.98696e-12)
(-0.0263798 0.0228572 -4.20552e-12)
(-0.0282418 0.0231373 -4.38669e-12)
(-0.0301248 0.0234405 -4.63537e-12)
(-0.0320303 0.0237678 -4.83207e-12)
(-0.0339602 0.0241204 -5.10835e-12)
(-0.0359162 0.0244997 -5.31498e-12)
(-0.0379 0.024907 -5.61188e-12)
(-0.0399137 0.025344 -5.81879e-12)
(-0.0419591 0.0258123 -6.12298e-12)
(-0.0440385 0.026314 -6.31505e-12)
(-0.046154 0.0268511 -6.60461e-12)
(-0.0483078 0.0274258 -6.75991e-12)
(-0.0505024 0.0280409 -7.00226e-12)
(-0.0527403 0.028699 -7.09126e-12)
(-0.0550242 0.0294033 -7.24161e-12)
(-0.0573568 0.0301572 -7.22716e-12)
(-0.0597411 0.0309646 -7.22823e-12)
(-0.06218 0.0318297 -7.0669e-12)
(-0.0646768 0.0327571 -6.85075e-12)
(-0.0672349 0.033752 -6.49636e-12)
(-0.0698577 0.0348204 -5.98997e-12)
(-0.0725489 0.0359687 -5.40019e-12)
(-0.0753122 0.0372042 -4.53702e-12)
(-0.0781515 0.0385351 -3.68452e-12)
(-0.0810707 0.0399705 -2.42407e-12)
(-0.0840738 0.0415207 -1.31332e-12)
(-0.0871648 0.0431974 3.29755e-13)
(-0.0903475 0.0450137 1.6672e-12)
(-0.0936257 0.0469844 3.6292e-12)
(-0.0970025 0.0491264 5.10709e-12)
(-0.100481 0.0514587 7.273e-12)
(-0.104062 0.0540028 8.88823e-12)
(-0.107748 0.0567832 1.09512e-11)
(-0.111536 0.0598277 1.25058e-11)
(-0.115425 0.0631678 1.46081e-11)
(-0.119406 0.0668391 1.63543e-11)
(-0.123471 0.0708821 1.83512e-11)
(-0.127603 0.0753422 2.02867e-11)
(-0.131779 0.0802709 2.1766e-11)
(-0.135965 0.0857256 2.37505e-11)
(-0.140116 0.0917702 2.39978e-11)
(-0.144168 0.0984741 2.59595e-11)
(-0.148037 0.105911 2.53691e-11)
(-0.151613 0.114154 2.77716e-11)
(-0.154752 0.123268 2.96206e-11)
(-0.157277 0.133297 3.34242e-11)
(-0.158981 0.144242 4.13466e-11)
(-0.159633 0.156037 4.68402e-11)
(-0.159008 0.168525 5.90371e-11)
(-0.156928 0.181449 6.41797e-11)
(-0.153298 0.194475 7.34933e-11)
(-0.14813 0.207246 7.50044e-11)
(-0.141536 0.219436 7.63394e-11)
(-0.133699 0.230796 7.32068e-11)
(-0.124828 0.24117 6.78081e-11)
(-0.115131 0.250483 6.22398e-11)
(-0.104795 0.258725 5.46973e-11)
(-0.0939756 0.265926 4.97117e-11)
(-0.0827944 0.272134 4.36628e-11)
(-0.0713454 0.277403 4.08335e-11)
(-0.0596993 0.281785 3.75936e-11)
(-0.0479092 0.28532 3.69198e-11)
(-0.0360149 0.288044 3.62251e-11)
(-0.0240491 0.289978 3.68008e-11)
(-0.0120453 0.291136 3.79593e-11)
(6.72339e-08 0.291524 3.86249e-11)
(0.0120454 0.291136 4.45132e-11)
(0.0240492 0.289978 1.97107e-11)
(0.0360151 0.288044 9.68292e-11)
(0.0479093 0.28532 2.62058e-11)
(-0.0083607 0.0257026 -5.33766e-12)
(-0.0100443 0.0258089 -4.14285e-12)
(-0.0117341 0.0259352 -3.09739e-12)
(-0.0134313 0.0260817 -3.11827e-12)
(-0.015137 0.026249 -3.20206e-12)
(-0.0168523 0.0264374 -3.30656e-12)
(-0.0185783 0.0266476 -3.44293e-12)
(-0.0203162 0.0268803 -3.58032e-12)
(-0.0220671 0.0271361 -3.74233e-12)
(-0.0238323 0.0274159 -3.89772e-12)
(-0.025613 0.0277205 -4.08294e-12)
(-0.0274105 0.0280511 -4.25527e-12)
(-0.0292261 0.0284086 -4.46517e-12)
(-0.031061 0.0287942 -4.65232e-12)
(-0.0329168 0.0292094 -4.88518e-12)
(-0.0347947 0.0296555 -5.08267e-12)
(-0.0366963 0.0301342 -5.33326e-12)
(-0.038623 0.0306471 -5.53332e-12)
(-0.0405764 0.0311963 -5.79136e-12)
(-0.0425581 0.0317838 -5.98161e-12)
(-0.0445697 0.0324119 -6.23011e-12)
(-0.0466128 0.0330831 -6.39249e-12)
(-0.0486893 0.0338002 -6.60625e-12)
(-0.0508008 0.0345662 -6.71651e-12)
(-0.0529492 0.0353844 -6.86137e-12)
(-0.0551364 0.0362585 -6.8893e-12)
(-0.0573641 0.0371925 -6.92228e-12)
(-0.0596343 0.0381908 -6.83308e-12)
(-0.0619489 0.0392582 -6.70452e-12)
(-0.0643097 0.0404001 -6.46174e-12)
(-0.0667186 0.0416224 -6.11977e-12)
(-0.0691774 0.0429317 -5.69026e-12)
(-0.0716877 0.0443351 -5.08898e-12)
(-0.0742511 0.0458405 -4.45026e-12)
(-0.0768688 0.0474568 -3.56185e-12)
(-0.0795419 0.0491938 -2.71104e-12)
(-0.082271 0.0510622 -1.54044e-12)
(-0.0850563 0.053074 -4.9985e-13)
(-0.0878971 0.0552424 9.06519e-13)
(-0.0907921 0.057582 2.0905e-12)
(-0.0937389 0.060109 3.65118e-12)
(-0.0967337 0.0628412 4.93732e-12)
(-0.0997709 0.0657981 6.56187e-12)
(-0.102843 0.0690013 7.94154e-12)
(-0.10594 0.0724741 9.63003e-12)
(-0.109048 0.0762421 1.11951e-11)
(-0.112149 0.0803326 1.30313e-11)
(-0.115222 0.084775 1.49077e-11)
(-0.118238 0.0896001 1.7021e-11)
(-0.121162 0.0948399 1.92987e-11)
(-0.123949 0.100527 2.18053e-11)
(-0.126545 0.106691 2.44872e-11)
(-0.128883 0.113363 2.76461e-11)
(-0.130884 0.120562 3.06666e-11)
(-0.132453 0.128302 3.50059e-11)
(-0.133482 0.136575 3.82073e-11)
(-0.133854 0.145353 4.38006e-11)
(-0.133445 0.154571 4.67103e-11)
(-0.132145 0.164124 5.20848e-11)
(-0.129863 0.173868 5.37352e-11)
(-0.126549 0.18363 5.64595e-11)
(-0.122204 0.193222 5.59623e-11)
(-0.116871 0.202468 5.48367e-11)
(-0.110636 0.21122 5.23723e-11)
(-0.103602 0.219368 4.84333e-11)
(-0.095884 0.226837 4.52477e-11)
(-0.0875926 0.233587 4.05916e-11)
(-0.078829 0.2396 3.80038e-11)
(-0.0696817 0.244874 3.42681e-11)
(-0.0602258 0.249416 3.29207e-11)
(-0.0505252 0.253238 3.08073e-11)
(-0.0406334 0.25635 3.07105e-11)
(-0.0305961 0.258764 3.01643e-11)
(-0.0204547 0.260485 3.08993e-11)
(-0.010251 0.261518 3.17108e-11)
(4.62018e-08 0.261863 3.24553e-11)
(0.0102511 0.261518 3.74075e-11)
(0.0204548 0.260485 1.60425e-11)
(0.0305962 0.258764 8.33233e-11)
(0.0406335 0.25635 2.18172e-11)
(-0.00808817 0.0301155 -5.44347e-13)
(-0.00971551 0.0302361 -1.04269e-12)
(-0.0113482 0.0303792 -6.69084e-13)
(-0.0129871 0.0305452 -8.03373e-13)
(-0.0146331 0.0307347 -8.68461e-13)
(-0.0162872 0.0309482 -9.32781e-13)
(-0.0179504 0.0311862 -1.00257e-12)
(-0.0196235 0.0314495 -1.0652e-12)
(-0.0213075 0.0317388 -1.15051e-12)
(-0.0230034 0.0320551 -1.22093e-12)
(-0.0247122 0.0323992 -1.32356e-12)
(-0.0264349 0.0327722 -1.40378e-12)
(-0.0281725 0.0331753 -1.5253e-12)
(-0.0299259 0.0336098 -1.61542e-12)
(-0.0316963 0.034077 -1.75598e-12)
(-0.0334847 0.0345785 -1.85473e-12)
(-0.0352922 0.0351159 -2.01241e-12)
(-0.0371198 0.0356911 -2.11653e-12)
(-0.0389685 0.036306 -2.28599e-12)
(-0.0408396 0.0369627 -2.38924e-12)
(-0.042734 0.0376637 -2.56025e-12)
(-0.0446528 0.0384115 -2.65242e-12)
(-0.0465971 0.0392088 -2.80866e-12)
(-0.0485679 0.0400587 -2.87504e-12)
(-0.0505662 0.0409646 -2.99328e-12)
(-0.0525929 0.0419299 -3.01449e-12)
(-0.0546491 0.0429587 -3.06445e-12)
(-0.0567354 0.0440552 -3.01701e-12)
(-0.0588525 0.0452241 -2.96249e-12)
(-0.0610012 0.0464705 -2.82019e-12)
(-0.0631817 0.0477999 -2.62173e-12)
(-0.0653942 0.0492183 -2.35829e-12)
(-0.0676388 0.0507324 -1.97807e-12)
(-0.069915 0.0523494 -1.57096e-12)
(-0.072222 0.054077 -9.80126e-13)
(-0.0745586 0.0559238 -4.16149e-13)
(-0.076923 0.0578989 3.94731e-13)
(-0.0793127 0.0600125 1.12128e-12)
(-0.0817242 0.0622753 2.14433e-12)
(-0.0841532 0.0646991 3.01482e-12)
(-0.0865941 0.0672964 4.20999e-12)
(-0.0890398 0.0700807 5.2086e-12)
(-0.0914817 0.0730664 6.53226e-12)
(-0.0939089 0.0762685 7.66106e-12)
(-0.0963083 0.0797031 9.1062e-12)
(-0.0986641 0.0833864 1.0383e-11)
(-0.100957 0.0873353 1.19851e-11)
(-0.103164 0.0915666 1.34583e-11)
(-0.105259 0.0960965 1.53086e-11)
(-0.107209 0.10094 1.70053e-11)
(-0.108978 0.106111 1.91948e-11)
(-0.110523 0.111619 2.10698e-11)
(-0.111794 0.117469 2.36376e-11)
(-0.112736 0.123662 2.55374e-11)
(-0.113289 0.130187 2.83917e-11)
(-0.113388 0.137024 3.00453e-11)
(-0.112965 0.144137 3.27888e-11)
(-0.111955 0.151475 3.38196e-11)
(-0.1103 0.158968 3.56767e-11)
(-0.107955 0.166528 3.56947e-11)
(-0.104896 0.174056 3.59023e-11)
(-0.10112 0.181447 3.47654e-11)
(-0.096648 0.188601 3.32037e-11)
(-0.09152 0.195427 3.12477e-11)
(-0.0857904 0.201848 2.85898e-11)
(-0.0795215 0.207807 2.64897e-11)
(-0.0727784 0.213259 2.3717e-11)
(-0.0656253 0.218175 2.20815e-11)
(-0.0581229 0.222535 1.9935e-11)
(-0.0503272 0.226327 1.90393e-11)
(-0.0422896 0.229544 1.78251e-11)
(-0.034057 0.232181 1.76329e-11)
(-0.0256723 0.234236 1.72694e-11)
(-0.0171764 0.235707 1.74633e-11)
(-0.00861121 0.236591 1.78109e-11)
(3.51102e-08 0.236886 1.8191e-11)
(0.00861128 0.236591 2.04539e-11)
(0.0171764 0.235707 1.05351e-11)
(0.0256724 0.234236 4.22149e-11)
(0.0340571 0.232181 2.22343e-11)
(-0.00778321 0.0343698 -2.0751e-12)
(-0.00934774 0.0345022 -1.17789e-12)
(-0.0109166 0.0346592 -9.86143e-13)
(-0.0124905 0.0348415 -9.67772e-13)
(-0.0140701 0.0350493 -1.00748e-12)
(-0.0156563 0.0352833 -1.04662e-12)
(-0.0172497 0.0355442 -1.09989e-12)
(-0.018851 0.0358325 -1.15444e-12)
(-0.020461 0.0361491 -1.21911e-12)
(-0.0220805 0.036495 -1.28387e-12)
(-0.0237101 0.036871 -1.36143e-12)
(-0.0253506 0.0372782 -1.43602e-12)
(-0.0270027 0.0377177 -1.52797e-12)
(-0.0286671 0.038191 -1.61209e-12)
(-0.0303446 0.0386993 -1.7187e-12)
(-0.0320358 0.0392442 -1.81109e-12)
(-0.0337414 0.0398273 -1.93077e-12)
(-0.035462 0.0404504 -2.02862e-12)
(-0.0371983 0.0411155 -2.15749e-12)
(-0.038951 0.0418246 -2.25552e-12)
(-0.0407204 0.0425801 -2.38518e-12)
(-0.0425073 0.0433843 -2.47424e-12)
(-0.044312 0.04424 -2.59196e-12)
(-0.0461348 0.04515 -2.65938e-12)
(-0.0479762 0.0461175 -2.7469e-12)
(-0.0498363 0.0471457 -2.77583e-12)
(-0.0517151 0.0482385 -2.8095e-12)
(-0.0536126 0.0493995 -2.77948e-12)
(-0.0555285 0.0506332 -2.73104e-12)
(-0.0574624 0.0519439 -2.61913e-12)
(-0.0594135 0.0533367 -2.45762e-12)
(-0.0613809 0.0548168 -2.24029e-12)
(-0.0633631 0.0563899 -1.9353e-12)
(-0.0653586 0.058062 -1.59116e-12)
(-0.0673649 0.0598396 -1.11716e-12)
(-0.0693795 0.0617297 -6.3031e-13)
(-0.0713989 0.0637397 2.77028e-14)
(-0.0734189 0.0658774 6.65008e-13)
(-0.0754346 0.068151 1.50806e-12)
(-0.0774401 0.0705693 2.29258e-12)
(-0.0794281 0.0731414 3.30549e-12)
(-0.0813904 0.0758767 4.22531e-12)
(-0.0833169 0.0787848 5.38437e-12)
(-0.0851962 0.0818756 6.43279e-12)
(-0.0870149 0.0851589 7.72584e-12)
(-0.0887574 0.0886441 8.89043e-12)
(-0.0904058 0.0923403 1.03099e-11)
(-0.0919397 0.0962557 1.15865e-11)
(-0.0933361 0.100397 1.31487e-11)
(-0.0945689 0.10477 1.45207e-11)
(-0.0956091 0.109376 1.62302e-11)
(-0.0964248 0.114216 1.76399e-11)
(-0.096981 0.119285 1.94451e-11)
(-0.0972407 0.124573 2.07726e-11)
(-0.0971647 0.130065 2.25147e-11)
(-0.0967134 0.135737 2.35773e-11)
(-0.0958477 0.141559 2.49612e-11)
(-0.0945317 0.147492 2.5548e-11)
(-0.0927347 0.153485 2.6207e-11)
(-0.0904339 0.159484 2.61595e-11)
(-0.087617 0.165427 2.58517e-11)
(-0.0842831 0.17125 2.51737e-11)
(-0.0804433 0.17689 2.39783e-11)
(-0.076119 0.182288 2.28882e-11)
(-0.0713403 0.187393 2.12018e-11)
(-0.0661434 0.192159 2.0046e-11)
(-0.0605681 0.19655 1.83756e-11)
(-0.0546557 0.200537 1.74628e-11)
(-0.048448 0.204097 1.62033e-11)
(-0.0419858 0.207211 1.5689e-11)
(-0.0353089 0.209867 1.50167e-11)
(-0.0284555 0.212054 1.48972e-11)
(-0.0214624 0.213764 1.47007e-11)
(-0.0143658 0.214991 1.48343e-11)
(-0.00720341 0.215729 1.48995e-11)
(2.45179e-08 0.215976 1.4971e-11)
(0.00720346 0.215729 1.77648e-11)
(0.0143659 0.214991 3.39646e-12)
(0.0214624 0.213764 4.83868e-11)
(0.0284556 0.212054 2.82123e-12)
(-0.00745243 0.03845 1.59137e-12)
(-0.00894896 0.0385917 1.13336e-12)
(-0.0104488 0.0387597 8.28019e-13)
(-0.0119524 0.0389546 7.48768e-13)
(-0.0134605 0.0391768 7.26651e-13)
(-0.0149734 0.0394269 7.1667e-13)
(-0.0164918 0.0397054 7.11558e-13)
(-0.0180162 0.0400131 7.11132e-13)
(-0.019547 0.0403507 7.01758e-13)
(-0.0210848 0.0407192 6.98805e-13)
(-0.0226301 0.0411194 6.80951e-13)
(-0.0241833 0.0415524 6.73313e-13)
(-0.0257449 0.0420193 6.44803e-13)
(-0.0273152 0.0425214 6.30065e-13)
(-0.0288948 0.0430599 5.89265e-13)
(-0.030484 0.0436364 5.67923e-13)
(-0.032083 0.0442523 5.16422e-13)
(-0.0336923 0.0449095 4.87954e-13)
(-0.035312 0.0456096 4.20678e-13)
(-0.0369423 0.0463548 3.82289e-13)
(-0.0385833 0.047147 3.09591e-13)
(-0.0402351 0.0479886 2.70793e-13)
(-0.0418976 0.0488819 1.95759e-13)
(-0.0435707 0.0498297 1.57951e-13)
(-0.045254 0.0508347 9.11377e-14)
(-0.0469472 0.0518999 6.32973e-14)
(-0.0486496 0.0530284 1.9106e-14)
(-0.0503605 0.0542238 1.19396e-14)
(-0.0520789 0.0554897 8.16801e-15)
(-0.0538036 0.0568298 3.43053e-14)
(-0.0555331 0.0582485 9.08824e-14)
(-0.0572655 0.0597499 1.63404e-13)
(-0.0589987 0.0613388 2.99899e-13)
(-0.0607301 0.0630199 4.3067e-13)
(-0.0624565 0.0647985 6.67264e-13)
(-0.0641744 0.0666798 8.6498e-13)
(-0.0658795 0.0686695 1.20792e-12)
(-0.067567 0.0707733 1.47875e-12)
(-0.0692311 0.0729971 1.93254e-12)
(-0.0708654 0.0753469 2.27198e-12)
(-0.0724623 0.077829 2.82874e-12)
(-0.0740134 0.0804493 3.23188e-12)
(-0.0755089 0.0832139 3.85999e-12)
(-0.0769379 0.0861283 4.29485e-12)
(-0.078288 0.0891979 4.98785e-12)
(-0.0795455 0.0924274 5.44587e-12)
(-0.0806949 0.0958205 6.17324e-12)
(-0.0817192 0.09938 6.62921e-12)
(-0.0826 0.103107 7.37188e-12)
(-0.0833168 0.107002 7.7992e-12)
(-0.083848 0.11106 8.53522e-12)
(-0.0841703 0.115278 8.89686e-12)
(-0.0842594 0.119647 9.58454e-12)
(-0.0840904 0.124154 9.82843e-12)
(-0.083638 0.128784 1.03877e-11)
(-0.0828778 0.133516 1.04504e-11)
(-0.0817865 0.138324 1.07603e-11)
(-0.0803438 0.143178 1.05841e-11)
(-0.0785327 0.148045 1.05204e-11)
(-0.0763416 0.152885 1.00853e-11)
(-0.0737645 0.157658 9.59555e-12)
(-0.0708018 0.162323 8.95168e-12)
(-0.0674607 0.166836 8.11624e-12)
(-0.0637543 0.171158 7.38884e-12)
(-0.059701 0.175253 6.40876e-12)
(-0.0553236 0.179087 5.75731e-12)
(-0.0506479 0.182632 4.87065e-12)
(-0.045702 0.185862 4.42326e-12)
(-0.0405151 0.188756 3.80367e-12)
(-0.0351175 0.191297 3.60441e-12)
(-0.0295395 0.19347 3.28633e-12)
(-0.0238113 0.195264 3.27876e-12)
(-0.0179632 0.19667 3.1422e-12)
(-0.0120255 0.19768 3.16236e-12)
(-0.00603004 0.198289 3.08122e-12)
(1.88778e-08 0.198492 3.17715e-12)
(0.00603008 0.198289 3.41085e-12)
(0.0120255 0.19768 1.96596e-12)
(0.0179632 0.19667 7.34306e-12)
(0.0238113 0.195264 9.61231e-12)
(-0.00710195 0.0423439 2.16063e-13)
(-0.00852658 0.0424924 7.8749e-13)
(-0.00995352 0.0426685 4.29351e-13)
(-0.0113831 0.0428726 4.7273e-13)
(-0.0128158 0.0431052 4.68887e-13)
(-0.0142518 0.0433669 4.77618e-13)
(-0.0156915 0.0436581 4.85497e-13)
(-0.0171353 0.0439796 4.91972e-13)
(-0.0185834 0.0443321 4.99079e-13)
(-0.0200361 0.0447164 5.02033e-13)
(-0.0214937 0.0451334 5.03835e-13)
(-0.0229565 0.0455841 5.00781e-13)
(-0.0244245 0.0460695 4.91837e-13)
(-0.025898 0.0465908 4.77026e-13)
(-0.0273772 0.0471492 4.62537e-13)
(-0.028862 0.047746 4.51385e-13)
(-0.0303526 0.0483827 4.34668e-13)
(-0.0318489 0.0490608 4.15803e-13)
(-0.0333508 0.049782 3.7635e-13)
(-0.0348581 0.050548 3.37193e-13)
(-0.0363706 0.0513608 2.93618e-13)
(-0.0378879 0.0522223 2.69535e-13)
(-0.0394096 0.0531346 2.33426e-13)
(-0.0409351 0.0541001 2.03745e-13)
(-0.0424637 0.0551212 1.71175e-13)
(-0.0439945 0.0562004 1.48513e-13)
(-0.0455263 0.0573405 1.32113e-13)
(-0.0470581 0.0585442 1.26751e-13)
(-0.0485882 0.0598146 1.4225e-13)
(-0.0501151 0.0611549 1.67294e-13)
(-0.0516365 0.0625683 2.30161e-13)
(-0.0531503 0.0640583 2.9452e-13)
(-0.0546538 0.0656285 4.14005e-13)
(-0.0561438 0.0672826 5.26946e-13)
(-0.0576169 0.0690244 7.20529e-13)
(-0.0590692 0.0708578 8.91176e-13)