/*--------------------------------*- C++ -*----------------------------------*\
| =========                 |                                                 |
| \\      /  F ield         | OpenFOAM: The Open Source CFD Toolbox           |
|  \\    /   O peration     | Version:  2306                                  |
|   \\  /    A nd           | Website:  www.openfoam.com                      |
|    \\/     M anipulation  |                                                 |
\*---------------------------------------------------------------------------*/
FoamFile
{
    version     2.0;
    format      ascii;
    arch        "LSB;label=32;scalar=64";
    class       volScalarField;
    location    "87.5";
    object      p;
}
// * * * * * * * * * * * * * * * * * * * * * * * * * * * * * * * * * * * * * //

dimensions      [1 -1 -2 0 0 0 0];

internalField   nonuniform List<scalar> 
14400
(
-0.00354702
-0.0037422
-0.00397562
-0.00424706
-0.00455465
-0.00489419
-0.00525151
-0.00556061
-0.00567262
-0.00586831
-0.00680715
-0.00723882
-0.0193225
-0.0311243
-0.0378904
-0.0390659
-0.0369452
-0.0341167
-0.0314614
-0.0290534
-0.0268677
-0.0248943
-0.0231239
-0.0215413
-0.0201287
-0.0188675
-0.0177399
-0.0167293
-0.015821
-0.0150019
-0.014261
-0.0135885
-0.0129762
-0.012417
-0.011905
-0.0114348
-0.0110022
-0.0106033
-0.0102346
-0.00989343
-0.00957711
-0.00928344
-0.00901047
-0.00875647
-0.00851989
-0.00829936
-0.00809366
-0.00790169
-0.00772246
-0.0075551
-0.0073988
-0.00725284
-0.00711657
-0.00698939
-0.00687078
-0.00676025
-0.00665735
-0.0065617
-0.00647291
-0.00639067
-0.00631468
-0.00624466
-0.00618037
-0.00612159
-0.00606813
-0.00601981
-0.00597648
-0.00593799
-0.00590424
-0.00587512
-0.00585056
-0.00583049
-0.00581487
-0.00580367
-0.00579689
-0.0057946
-0.00579684
-0.00580357
-0.00581472
-0.00583029
-0.00359014
-0.00382142
-0.00411063
-0.00446829
-0.00490946
-0.00545601
-0.0061388
-0.0069943
-0.00806631
-0.00948915
-0.011358
-0.0121319
-0.013347
-0.0157518
-0.0198134
-0.0246889
-0.0276236
-0.0276727
-0.0263159
-0.0247465
-0.0232631
-0.0218653
-0.0205514
-0.0193304
-0.0182051
-0.0171732
-0.0162297
-0.0153681
-0.0145815
-0.013863
-0.0132061
-0.0126046
-0.012053
-0.0115464
-0.0110803
-0.0106508
-0.0102543
-0.0098877
-0.00954831
-0.00923367
-0.00894159
-0.00867014
-0.00841761
-0.00818245
-0.0079633
-0.00775891
-0.00756819
-0.00739013
-0.00722385
-0.00706852
-0.00692343
-0.00678792
-0.00666137
-0.00654326
-0.00643308
-0.00633039
-0.00623478
-0.00614589
-0.00606338
-0.00598694
-0.0059163
-0.00585121
-0.00579145
-0.0057368
-0.0056871
-0.00564217
-0.00560187
-0.00556608
-0.00553468
-0.00550759
-0.00548471
-0.005466
-0.0054514
-0.00544086
-0.00543436
-0.0054321
-0.00543431
-0.00544076
-0.00545125
-0.00546581
-0.00347956
-0.00365547
-0.00386954
-0.0041259
-0.00443099
-0.00479521
-0.00523583
-0.00578294
-0.00649661
-0.00749542
-0.00889588
-0.0106485
-0.0131557
-0.0162439
-0.0193571
-0.0219225
-0.0232953
-0.0232923
-0.0224302
-0.0213033
-0.0201724
-0.0190849
-0.0180481
-0.0170711
-0.0161596
-0.0153147
-0.0145348
-0.0138165
-0.0131557
-0.0125478
-0.0119884
-0.0114732
-0.0109983
-0.0105598
-0.0101545
-0.00977948
-0.00943193
-0.00910948
-0.00880995
-0.00853142
-0.00827214
-0.00803055
-0.00780527
-0.00759502
-0.00739867
-0.00721521
-0.00704372
-0.00688335
-0.00673336
-0.00659306
-0.00646184
-0.00633912
-0.00622439
-0.00611719
-0.0060171
-0.00592373
-0.00583672
-0.00575575
-0.00568054
-0.00561082
-0.00554635
-0.0054869
-0.00543228
-0.00538231
-0.00533684
-0.0052957
-0.00525879
-0.00522598
-0.00519717
-0.00517228
-0.00515123
-0.00513396
-0.00512042
-0.00511055
-0.00510428
-0.00510204
-0.00510423
-0.00511045
-0.00512028
-0.00513377
-0.0046987
-0.0049317
-0.00522139
-0.00557647
-0.00600891
-0.00653511
-0.00717699
-0.00796137
-0.00891436
-0.0100514
-0.0113739
-0.012912
-0.0147675
-0.016678
-0.0181777
-0.0189229
-0.0189044
-0.0183948
-0.0176839
-0.0169278
-0.0161809
-0.0154562
-0.0147588
-0.0140936
-0.013464
-0.0128713
-0.0123154
-0.0117953
-0.0113096
-0.0108562
-0.0104332
-0.0100386
-0.00967038
-0.0093267
-0.00900577
-0.00870594
-0.00842569
-0.00816359
-0.00791834
-0.00768875
-0.00747372
-0.00727222
-0.00708334
-0.00690622
-0.00674008
-0.00658422
-0.00643797
-0.00630074
-0.00617197
-0.00605117
-0.00593786
-0.00583163
-0.00573208
-0.00563886
-0.00555164
-0.00547011
-0.00539401
-0.00532307
-0.00525708
-0.00519581
-0.00513908
-0.0050867
-0.00503852
-0.00499439
-0.00495417
-0.00491777
-0.00488505
-0.00485594
-0.00483034
-0.00480818
-0.00478941
-0.00477396
-0.00476179
-0.00475282
-0.004747
-0.00474486
-0.00474695
-0.00475273
-0.00476165
-0.00477378
-0.00783679
-0.0080822
-0.00838198
-0.00873974
-0.00915946
-0.00964462
-0.0101964
-0.0108099
-0.0114699
-0.0121528
-0.0128316
-0.01347
-0.014015
-0.0143719
-0.0144826
-0.0143625
-0.0140774
-0.0137028
-0.0132946
-0.0128798
-0.0124655
-0.0120542
-0.011649
-0.0112528
-0.0108684
-0.0104975
-0.0101413
-0.00980039
-0.00947512
-0.00916546
-0.00887117
-0.0085919
-0.00832716
-0.00807644
-0.00783914
-0.00761468
-0.00740245
-0.00720186
-0.00701233
-0.00683328
-0.00666417
-0.00650447
-0.00635369
-0.00621135
-0.00607702
-0.00595026
-0.00583068
-0.00571792
-0.00561162
-0.00551146
-0.00541714
-0.00532838
-0.00524491
-0.0051665
-0.00509291
-0.00502393
-0.00495936
-0.00489904
-0.00484278
-0.00479044
-0.00474188
-0.00469696
-0.00465556
-0.00461758
-0.00458292
-0.00455148
-0.00452319
-0.00449797
-0.00447575
-0.00445649
-0.00444012
-0.00442662
-0.00441593
-0.00440799
-0.00440274
-0.00440078
-0.0044027
-0.0044079
-0.0044158
-0.00442645
-0.00906982
-0.00916065
-0.00926904
-0.0093924
-0.00952748
-0.00966999
-0.00981415
-0.00995221
-0.0100745
-0.0101712
-0.0102334
-0.0102529
-0.0102261
-0.0101583
-0.0100663
-0.0099651
-0.00985587
-0.00973258
-0.00959216
-0.00943619
-0.00926737
-0.00908837
-0.00890176
-0.00870995
-0.00851511
-0.00831915
-0.00812365
-0.00792996
-0.00773918
-0.00755219
-0.00736969
-0.00719223
-0.00702019
-0.00685388
-0.00669347
-0.00653909
-0.00639078
-0.00624852
-0.00611227
-0.00598193
-0.00585739
-0.00573852
-0.00562516
-0.00551717
-0.00541437
-0.0053166
-0.00522369
-0.00513547
-0.00505178
-0.00497246
-0.00489735
-0.00482631
-0.00475918
-0.00469583
-0.00463612
-0.00457995
-0.00452718
-0.00447771
-0.00443143
-0.00438824
-0.00434806
-0.0043108
-0.00427637
-0.00424472
-0.00421576
-0.00418945
-0.00416571
-0.00414451
-0.0041258
-0.00410953
-0.00409568
-0.00408421
-0.00407509
-0.00406826
-0.00406368
-0.00406194
-0.00406364
-0.00406818
-0.00407497
-0.00408405
-0.00662187
-0.00661812
-0.00661759
-0.00661937
-0.00662265
-0.00662678
-0.00663134
-0.00663629
-0.0066421
-0.00665009
-0.00666231
-0.00668087
-0.00670703
-0.00673976
-0.00677532
-0.00680786
-0.00683155
-0.00684281
-0.00684044
-0.00682464
-0.00679604
-0.00675543
-0.00670379
-0.00664225
-0.00657205
-0.00649444
-0.00641069
-0.00632199
-0.00622946
-0.00613413
-0.00603694
-0.00593869
-0.00584013
-0.00574186
-0.00564443
-0.00554829
-0.00545381
-0.0053613
-0.00527102
-0.00518316
-0.00509787
-0.00501528
-0.00493547
-0.00485849
-0.00478437
-0.00471314
-0.00464478
-0.00457929
-0.00451664
-0.00445679
-0.00439971
-0.00434535
-0.00429367
-0.00424461
-0.00419812
-0.00415416
-0.00411267
-0.0040736
-0.0040369
-0.00400252
-0.00397042
-0.00394055
-0.00391286
-0.00388733
-0.00386391
-0.00384257
-0.00382327
-0.00380598
-0.00379068
-0.00377735
-0.00376595
-0.00375648
-0.00374892
-0.00374321
-0.00373931
-0.0037378
-0.00373927
-0.00374314
-0.00374881
-0.00375634
-0.0038995
-0.00389907
-0.00390424
-0.00391536
-0.0039329
-0.00395745
-0.00398964
-0.00403007
-0.00407917
-0.00413713
-0.00420366
-0.0042779
-0.00435826
-0.0044425
-0.00452798
-0.00461199
-0.00469195
-0.00476565
-0.00483136
-0.00488782
-0.00493425
-0.00497026
-0.00499583
-0.00501123
-0.00501694
-0.00501364
-0.00500208
-0.00498309
-0.0049575
-0.00492617
-0.0048899
-0.00484947
-0.0048056
-0.00475894
-0.0047101
-0.00465962
-0.00460799
-0.00455564
-0.00450295
-0.00445025
-0.00439783
-0.00434592
-0.00429476
-0.0042445
-0.00419532
-0.00414732
-0.00410063
-0.00405532
-0.00401147
-0.00396913
-0.00392834
-0.00388914
-0.00385155
-0.00381558
-0.00378126
-0.00374857
-0.00371753
-0.00368812
-0.00366035
-0.0036342
-0.00360967
-0.00358674
-0.0035654
-0.00354565
-0.00352745
-0.00351082
-0.00349572
-0.00348215
-0.00347011
-0.00345957
-0.00345052
-0.00344297
-0.0034369
-0.00343227
-0.00342904
-0.00342777
-0.00342901
-0.00343221
-0.00343681
-0.00344285
-0.00208343
-0.00209604
-0.00211573
-0.0021429
-0.00217792
-0.00222119
-0.00227302
-0.00233363
-0.00240305
-0.00248108
-0.00256719
-0.00266053
-0.00275985
-0.00286357
-0.00296981
-0.00307654
-0.00318172
-0.00328344
-0.00338007
-0.00347027
-0.00355303
-0.00362764
-0.0036937
-0.00375103
-0.00379969
-0.00383988
-0.00387198
-0.00389643
-0.00391375
-0.00392453
-0.00392933
-0.00392876
-0.0039234
-0.00391379
-0.00390049
-0.00388398
-0.00386474
-0.0038432
-0.00381975
-0.00379476
-0.00376854
-0.00374139
-0.00371357
-0.00368532
-0.00365685
-0.00362833
-0.00359994
-0.00357182
-0.00354408
-0.00351684
-0.0034902
-0.00346424
-0.00343902
-0.0034146
-0.00339105
-0.0033684
-0.0033467
-0.00332596
-0.00330623
-0.00328751
-0.00326983
-0.00325321
-0.00323765
-0.00322316
-0.00320975
-0.00319743
-0.00318619
-0.00317605
-0.003167
-0.00315904
-0.00315218
-0.00314641
-0.00314173
-0.00313811
-0.00313551
-0.00313447
-0.00313549
-0.00313806
-0.00314165
-0.00314631
-0.000900797
-0.000922117
-0.000950958
-0.000987595
-0.00103227
-0.00108518
-0.00114642
-0.00121597
-0.00129367
-0.00137914
-0.00147177
-0.00157075
-0.00167501
-0.00178329
-0.00189417
-0.00200615
-0.00211774
-0.00222748
-0.00233406
-0.00243636
-0.00253343
-0.00262451
-0.00270907
-0.00278675
-0.00285736
-0.00292085
-0.00297732
-0.00302694
-0.00306999
-0.00310678
-0.0031377
-0.00316312
-0.00318347
-0.00319916
-0.00321061
-0.00321821
-0.00322237
-0.00322344
-0.00322179
-0.00321773
-0.00321159
-0.00320364
-0.00319414
-0.00318335
-0.00317147
-0.00315871
-0.00314526
-0.00313127
-0.0031169
-0.00310228
-0.00308754
-0.00307278
-0.0030581
-0.00304358
-0.0030293
-0.00301534
-0.00300174
-0.00298858
-0.00297588
-0.0029637
-0.00295207
-0.00294103
-0.0029306
-0.0029208
-0.00291166
-0.0029032
-0.00289543
-0.00288837
-0.00288201
-0.00287639
-0.00287149
-0.00286734
-0.00286392
-0.00286122
-0.00285921
-0.00285838
-0.00285919
-0.00286118
-0.00286386
-0.00286726
-0.000141718
-0.000168029
-0.000201679
-0.00024281
-0.000291505
-0.00034779
-0.000411606
-0.000482795
-0.000561073
-0.000646022
-0.000737073
-0.000833512
-0.000934483
-0.00103901
-0.00114604
-0.00125445
-0.00136312
-0.00147096
-0.00157697
-0.00168021
-0.00177988
-0.00187531
-0.00196595
-0.0020514
-0.00213136
-0.00220567
-0.00227423
-0.00233708
-0.00239429
-0.00244602
-0.00249246
-0.00253385
-0.00257044
-0.00260253
-0.00263039
-0.00265434
-0.00267466
-0.00269165
-0.00270559
-0.00271675
-0.00272541
-0.0027318
-0.00273617
-0.00273873
-0.00273969
-0.00273925
-0.00273759
-0.00273486
-0.00273123
-0.00272682
-0.00272178
-0.00271622
-0.00271025
-0.00270395
-0.00269743
-0.00269077
-0.00268403
-0.00267729
-0.0026706
-0.00266401
-0.00265758
-0.00265135
-0.00264536
-0.00263963
-0.00263421
-0.00262912
-0.00262438
-0.00262001
-0.00261603
-0.00261245
-0.0026093
-0.00260657
-0.00260428
-0.0026024
-0.00260092
-0.00260027
-0.0026009
-0.00260237
-0.00260423
-0.00260651
0.000334243
0.000306092
0.000271113
0.000229274
0.000180596
0.000125161
6.31145e-05
-5.31816e-06
-7.98241e-05
-0.000159996
-0.000245332
-0.000335234
-0.000429021
-0.000525939
-0.000625182
-0.000725912
-0.000827288
-0.000928482
-0.00102871
-0.00112724
-0.00122341
-0.00131666
-0.00140649
-0.00149249
-0.00157437
-0.00165188
-0.00172487
-0.00179326
-0.00185703
-0.00191621
-0.00197087
-0.00202114
-0.00206716
-0.0021091
-0.00214715
-0.00218151
-0.00221239
-0.00224001
-0.00226457
-0.0022863
-0.0023054
-0.00232207
-0.00233652
-0.00234892
-0.00235947
-0.00236832
-0.00237565
-0.00238159
-0.00238631
-0.00238992
-0.00239255
-0.00239432
-0.00239533
-0.00239569
-0.00239548
-0.00239479
-0.00239369
-0.00239225
-0.00239055
-0.00238863
-0.00238655
-0.00238437
-0.00238212
-0.00237985
-0.00237758
-0.00237536
-0.00237321
-0.00237115
-0.0023692
-0.0023674
-0.00236574
-0.00236425
-0.00236293
-0.00236177
-0.00236075
-0.00236027
-0.00236074
-0.00236175
-0.0023629
-0.00236421
0.000622344
0.000594505
0.000560497
0.000520354
0.000474161
0.000422048
0.000364199
0.000300858
0.000232326
0.000158971
8.12232e-05
-4.27475e-07
-8.54377e-05
-0.00017322
-0.000263154
-0.0003546
-0.000446915
-0.000539464
-0.000631636
-0.000722855
-0.000812589
-0.000900358
-0.000985741
-0.00106837
-0.00114796
-0.00122424
-0.00129705
-0.00136625
-0.00143175
-0.00149352
-0.00155156
-0.0016059
-0.00165661
-0.00170378
-0.00174752
-0.00178795
-0.00182521
-0.00185945
-0.00189081
-0.00191946
-0.00194556
-0.00196925
-0.00199069
-0.00201004
-0.00202745
-0.00204305
-0.00205698
-0.00206938
-0.00208036
-0.00209005
-0.00209855
-0.00210599
-0.00211244
-0.00211801
-0.00212277
-0.00212683
-0.00213023
-0.00213307
-0.00213539
-0.00213727
-0.00213875
-0.00213988
-0.00214071
-0.00214129
-0.00214164
-0.0021418
-0.0021418
-0.00214168
-0.00214144
-0.00214112
-0.00214072
-0.00214028
-0.00213978
-0.00213923
-0.00213861
-0.00213829
-0.00213861
-0.00213922
-0.00213977
-0.00214026
0.000786141
0.000759878
0.000728138
0.000690991
0.000648548
0.000600959
0.000548414
0.000491144
0.000429425
0.000363575
0.000293956
0.000220968
0.000145046
6.66524e-05
-1.37286e-05
-9.56009e-05
-0.000178465
-0.000261827
-0.000345208
-0.000428148
-0.00051022
-0.000591027
-0.000670211
-0.000747457
-0.000822489
-0.000895075
-0.000965024
-0.00103219
-0.00109645
-0.00115773
-0.001216
-0.00127123
-0.00132343
-0.00137263
-0.00141889
-0.00146228
-0.00150287
-0.00154076
-0.00157605
-0.00160885
-0.00163928
-0.00166743
-0.00169344
-0.00171742
-0.00173947
-0.00175973
-0.00177829
-0.00179527
-0.00181077
-0.00182489
-0.00183773
-0.00184937
-0.00185991
-0.00186943
-0.00187801
-0.00188571
-0.00189261
-0.00189878
-0.00190426
-0.00190913
-0.00191343
-0.0019172
-0.0019205
-0.00192336
-0.00192583
-0.00192792
-0.00192968
-0.00193113
-0.00193229
-0.00193318
-0.00193383
-0.00193424
-0.00193443
-0.00193439
-0.00193411
-0.00193391
-0.00193411
-0.00193439
-0.00193443
-0.00193424
0.000868009
0.000843957
0.000815095
0.000781508
0.000743311
0.000700653
0.000653714
0.000602702
0.000547859
0.000489456
0.000427793
0.000363196
0.000296016
0.000226621
0.000155393
8.27214e-05
9.00043e-06
-6.53807e-05
-0.000140041
-0.000214614
-0.000288752
-0.000362128
-0.000434444
-0.000505426
-0.000574832
-0.000642451
-0.000708099
-0.000771626
-0.000832907
-0.000891846
-0.000948375
-0.00100245
-0.00105403
-0.00110313
-0.00114976
-0.00119394
-0.00123571
-0.00127512
-0.00131225
-0.00134715
-0.00137989
-0.00141057
-0.00143926
-0.00146606
-0.00149103
-0.00151428
-0.00153588
-0.00155593
-0.00157451
-0.0015917
-0.00160757
-0.00162221
-0.00163569
-0.00164809
-0.00165945
-0.00166986
-0.00167938
-0.00168805
-0.00169593
-0.00170308
-0.00170954
-0.00171536
-0.00172057
-0.00172522
-0.00172934
-0.00173295
-0.00173609
-0.00173879
-0.00174106
-0.00174292
-0.0017444
-0.00174551
-0.00174626
-0.00174663
-0.00174663
-0.00174653
-0.00174663
-0.00174664
-0.00174627
-0.00174553
0.000896269
0.000874654
0.000848842
0.000818918
0.000784994
0.000747207
0.000705718
0.000660709
0.000612387
0.000560978
0.000506733
0.000449916
0.000390812
0.000329716
0.000266933
0.000202773
0.00013755
7.15745e-05
5.1521e-06
-6.1421e-05
-0.000127861
-0.0001939
-0.000259285
-0.000323787
-0.000387194
-0.000449316
-0.000509987
-0.000569062
-0.000626418
-0.000681952
-0.000735584
-0.000787249
-0.000836903
-0.000884518
-0.00093008
-0.000973588
-0.00101505
-0.0010545
-0.00109196
-0.00112747
-0.00116108
-0.00119284
-0.0012228
-0.00125103
-0.00127758
-0.00130253
-0.00132592
-0.00134784
-0.00136834
-0.0013875
-0.00140536
-0.001422
-0.00143747
-0.00145183
-0.00146515
-0.00147746
-0.00148883
-0.00149931
-0.00150893
-0.00151776
-0.00152581
-0.00153314
-0.00153979
-0.00154578
-0.00155114
-0.00155591
-0.00156011
-0.00156376
-0.00156688
-0.0015695
-0.00157163
-0.00157327
-0.00157445
-0.00157516
-0.00157538
-0.00157538
-0.00157539
-0.00157518
-0.00157448
-0.00157331
0.000889917
0.000870727
0.000847887
0.000821478
0.000791602
0.000758379
0.000721949
0.000682468
0.000640112
0.000595069
0.000547545
0.000497758
0.000445937
0.000392322
0.000337159
0.000280697
0.000223188
0.000164883
0.000106029
4.68681e-05
-1.23682e-05
-7.14572e-05
-0.000130189
-0.000188366
-0.000245808
-0.000302349
-0.000357837
-0.000412141
-0.000465143
-0.000516741
-0.000566852
-0.000615403
-0.000662341
-0.000707622
-0.000751216
-0.000793106
-0.000833283
-0.000871749
-0.000908514
-0.000943595
-0.000977018
-0.00100881
-0.00103901
-0.00106765
-0.00109478
-0.00112043
-0.00114466
-0.00116752
-0.00118904
-0.00120929
-0.0012283
-0.00124613
-0.00126282
-0.00127843
-0.00129299
-0.00130655
-0.00131916
-0.00133085
-0.00134166
-0.00135164
-0.00136081
-0.00136921
-0.00137686
-0.00138381
-0.00139008
-0.00139568
-0.00140065
-0.00140501
-0.00140876
-0.00141194
-0.00141455
-0.0014166
-0.00141811
-0.00141907
-0.00141947
-0.00141954
-0.00141948
-0.00141909
-0.00141815
-0.00141665
0.000861752
0.000844842
0.000824765
0.000801592
0.000775412
0.000746332
0.000714469
0.000679957
0.00064294
0.000603576
0.000562036
0.000518496
0.000473146
0.000426179
0.000377795
0.000328196
0.000277587
0.000226173
0.000174154
0.000121728
6.90871e-05
1.64166e-05
-3.61077e-05
-8.83191e-05
-0.000140062
-0.000191191
-0.000241574
-0.000291091
-0.000339633
-0.000387105
-0.000433422
-0.000478514
-0.000522319
-0.000564789
-0.000605884
-0.000645574
-0.000683839
-0.000720666
-0.000756052
-0.000789997
-0.000822509
-0.000853603
-0.000883296
-0.00091161
-0.000938571
-0.000964208
-0.000988552
-0.00101163
-0.00103349
-0.00105416
-0.00107367
-0.00109206
-0.00110937
-0.00112563
-0.00114088
-0.00115515
-0.00116849
-0.00118091
-0.00119246
-0.00120316
-0.00121304
-0.00122213
-0.00123046
-0.00123804
-0.00124491
-0.00125109
-0.00125659
-0.00126143
-0.00126562
-0.00126919
-0.00127214
-0.00127449
-0.00127623
-0.00127738
-0.00127792
-0.00127804
-0.00127793
-0.00127741
-0.00127628
-0.00127454
0.000820389
0.000805557
0.000787977
0.000767712
0.000744838
0.000719446
0.000691635
0.000661517
0.000629212
0.000594853
0.000558579
0.000520536
0.000480877
0.000439763
0.000397356
0.000353821
0.000309327
0.000264039
0.000218123
0.000171743
0.000125058
7.82219e-05
3.1383e-05
-1.53173e-05
-6.17454e-05
-0.000107776
-0.000153293
-0.000198188
-0.000242364
-0.000285731
-0.000328212
-0.000369734
-0.000410238
-0.000449672
-0.000487991
-0.00052516
-0.00056115
-0.00059594
-0.000629515
-0.000661866
-0.00069299
-0.000722888
-0.000751566
-0.000779035
-0.000805307
-0.000830398
-0.000854328
-0.000877117
-0.000898789
-0.000919366
-0.000938876
-0.000957343
-0.000974794
-0.000991256
-0.00100676
-0.00102132
-0.00103497
-0.00104775
-0.00105966
-0.00107074
-0.001081
-0.00109048
-0.00109919
-0.00110715
-0.00111438
-0.0011209
-0.00112673
-0.00113187
-0.00113635
-0.00114017
-0.00114334
-0.00114588
-0.00114779
-0.00114906
-0.0011497
-0.00114987
-0.00114972
-0.0011491
-0.00114784
-0.00114595
0.000771636
0.000758659
0.000743296
0.000725602
0.000705642
0.000683493
0.000659237
0.000632969
0.000604789
0.000574804
0.000543132
0.000509892
0.000475211
0.00043922
0.000402052
0.000363844
0.000324733
0.000284857
0.000244353
0.000203356
0.000162
0.000120412
7.87187e-05
3.70395e-05
-4.51101e-06
-4.58244e-05
-8.67989e-05
-0.000127339
-0.000167358
-0.000206774
-0.000245514
-0.000283511
-0.000320707
-0.000357049
-0.000392492
-0.000426997
-0.000460531
-0.000493068
-0.000524586
-0.00055507
-0.000584508
-0.000612892
-0.000640222
-0.000666496
-0.000691719
-0.000715898
-0.000739042
-0.000761163
-0.000782275
-0.000802393
-0.000821532
-0.000839712
-0.000856949
-0.000873263
-0.000888674
-0.0009032
-0.000916861
-0.000929676
-0.000941665
-0.000952845
-0.000963236
-0.000972854
-0.000981716
-0.000989837
-0.000997233
-0.00100392
-0.0010099
-0.0010152
-0.00101983
-0.00102379
-0.00102709
-0.00102974
-0.00103174
-0.0010331
-0.0010338
-0.001034
-0.00103382
-0.00103314
-0.0010318
-0.00102981
0.000719385
0.000708043
0.000694628
0.000679187
0.000661776
0.000642456
0.000621299
0.000598383
0.000573791
0.000547613
0.000519944
0.000490885
0.00046054
0.000429017
0.000396425
0.000362879
0.000328491
0.000293376
0.000257648
0.000221418
0.0001848
0.000147901
0.000110827
7.36803e-05
3.65589e-05
-4.43394e-07
-3.72379e-05
-7.3741e-05
-0.000109874
-0.000145565
-0.000180746
-0.000215356
-0.000249338
-0.000282643
-0.000315226
-0.000347046
-0.00037807
-0.000408268
-0.000437615
-0.00046609
-0.000493676
-0.000520362
-0.000546138
-0.000570999
-0.000594941
-0.000617964
-0.000640071
-0.000661267
-0.000681557
-0.000700949
-0.000719454
-0.000737081
-0.000753842
-0.000769751
-0.000784818
-0.000799059
-0.000812486
-0.000825114
-0.000836956
-0.000848027
-0.000858338
-0.000867904
-0.000876737
-0.000884849
-0.000892251
-0.000898955
-0.000904971
-0.000910307
-0.000914972
-0.000918974
-0.00092232
-0.000925016
-0.000927066
-0.000928467
-0.000929216
-0.000929433
-0.000929237
-0.000928508
-0.000927128
-0.000925097
0.000666233
0.00065632
0.000644605
0.000631125
0.000615928
0.000599067
0.0005806
0.000560591
0.000539112
0.000516236
0.000492042
0.000466614
0.000440038
0.000412403
0.000383802
0.000354326
0.000324072
0.000293134
0.000261608
0.000229587
0.000197165
0.000164435
0.000131486
9.84048e-05
6.52759e-05
3.21802e-05
-8.0494e-07
-3.36062e-05
-6.6154e-05
-9.83835e-05
-0.000130234
-0.000161648
-0.000192575
-0.000222966
-0.00025278
-0.000281976
-0.000310519
-0.000338381
-0.000365532
-0.000391951
-0.000417618
-0.000442516
-0.000466632
-0.000489956
-0.00051248
-0.000534199
-0.000555109
-0.000575211
-0.000594505
-0.000612994
-0.00063068
-0.00064757
-0.00066367
-0.000678987
-0.000693528
-0.000707303
-0.00072032
-0.000732587
-0.000744116
-0.000754914
-0.000764992
-0.000774359
-0.000783024
-0.000790995
-0.000798282
-0.000804892
-0.000810833
-0.000816112
-0.000820735
-0.000824708
-0.000828037
-0.000830726
-0.000832779
-0.000834192
-0.000834963
-0.000835193
-0.000834984
-0.000834235
-0.000832843
-0.000830812
0.000613873
0.000605205
0.000594966
0.000583189
0.000569912
0.00055518
0.000539042
0.000521553
0.000502769
0.000482754
0.000461573
0.000439295
0.000415992
0.000391739
0.000366611
0.000340688
0.000314047
0.000286769
0.000258933
0.000230619
0.000201906
0.000172872
0.000143592
0.000114142
8.45938e-05
5.50175e-05
2.54804e-05
-3.95314e-06
-3.32219e-05
-6.22678e-05
-9.10363e-05
-0.000119476
-0.000147539
-0.000175182
-0.000202363
-0.000229045
-0.000255194
-0.000280781
-0.000305776
-0.000330157
-0.000353901
-0.000376991
-0.000399409
-0.000421144
-0.000442184
-0.00046252
-0.000482146
-0.000501056
-0.000519248
-0.000536719
-0.00055347
-0.000569501
-0.000584815
-0.000599413
-0.000613301
-0.000626482
-0.000638962
-0.000650746
-0.000661839
-0.000672248
-0.000681978
-0.000691037
-0.000699429
-0.000707162
-0.000714241
-0.000720672
-0.000726459
-0.000731609
-0.000736126
-0.000740013
-0.000743276
-0.000745917
-0.00074794
-0.00074934
-0.000750116
-0.000750354
-0.000750138
-0.000749385
-0.000748006
-0.000746006
0.000563384
0.000555797
0.000546838
0.000536535
0.00052492
0.000512032
0.00049791
0.0004826
0.000466151
0.000448614
0.000430044
0.000410499
0.000390039
0.000368726
0.000346624
0.000323799
0.000300316
0.000276242
0.000251646
0.000226593
0.000201152
0.000175387
0.000149365
0.000123149
9.68011e-05
7.03826e-05
4.39517e-05
1.75648e-05
-8.72403e-06
-3.48633e-05
-6.08041e-05
-8.65001e-05
-0.000111908
-0.000136986
-0.000161698
-0.000186008
-0.000209883
-0.000233294
-0.000256213
-0.000278617
-0.000300483
-0.000321792
-0.000342526
-0.00036267
-0.000382211
-0.000401138
-0.000419442
-0.000437114
-0.000454148
-0.000470541
-0.000486288
-0.000501387
-0.000515837
-0.000529637
-0.000542789
-0.000555292
-0.000567151
-0.000578365
-0.00058894
-0.000598876
-0.000608179
-0.000616852
-0.000624898
-0.00063232
-0.000639124
-0.000645312
-0.000650888
-0.000655856
-0.000660218
-0.000663978
-0.000667137
-0.0006697
-0.000671667
-0.000673035
-0.000673803
-0.000674043
-0.000673826
-0.000673081
-0.000671735
-0.000669791
0.000515419
0.000508769
0.00050092
0.000491894
0.000481719
0.000470426
0.000458049
0.000444627
0.000430199
0.00041481
0.000398505
0.000381332
0.000363343
0.000344588
0.000325122
0.000305
0.000284277
0.00026301
0.000241256
0.000219072
0.000196515
0.000173641
0.000150505
0.000127164
0.000103671
8.00776e-05
5.64356e-05
3.27942e-05
9.20094e-06
-1.42984e-05
-3.76602e-05
-6.08429e-05
-8.3807e-05
-0.000106515
-0.000128933
-0.000151027
-0.000172767
-0.000194125
-0.000215074
-0.000235591
-0.000255653
-0.000275241
-0.000294337
-0.000312924
-0.000330989
-0.000348517
-0.0003655
-0.000381925
-0.000397787
-0.000413077
-0.00042779
-0.000441921
-0.000455467
-0.000468424
-0.000480792
-0.000492568
-0.000503753
-0.000514345
-0.000524347
-0.000533758
-0.00054258
-0.000550814
-0.000558462
-0.000565526
-0.000572008
-0.000577909
-0.000583233
-0.000587981
-0.000592154
-0.000595755
-0.000598785
-0.000601246
-0.000603138
-0.000604461
-0.00060521
-0.000605448
-0.000605233
-0.000604507
-0.000603208
-0.000601337
0.000470346
0.000464509
0.000457622
0.000449702
0.000440773
0.000430862
0.000419998
0.000408211
0.000395536
0.00038201
0.000367671
0.00035256
0.000336719
0.000320193
0.000303025
0.000285264
0.000266955
0.000248147
0.000228889
0.000209228
0.000189213
0.000168893
0.000148315
0.000127527
0.000106575
8.55046e-05
6.43608e-05
4.31866e-05
2.20238e-05
9.12956e-07
-2.01071e-05
-4.09992e-05
-6.17276e-05
-8.22586e-05
-0.00010256
-0.000122602
-0.000142356
-0.000161794
-0.000180894
-0.00019963
-0.000217982
-0.00023593
-0.000253457
-0.000270545
-0.00028718
-0.000303348
-0.000319037
-0.000334236
-0.000348936
-0.000363129
-0.000376806
-0.000389962
-0.000402591
-0.000414689
-0.000426251
-0.000437276
-0.00044776
-0.000457702
-0.0004671
-0.000475954
-0.000484263
-0.000492027
-0.000499246
-0.00050592
-0.00051205
-0.000517637
-0.000522681
-0.000527183
-0.000531144
-0.000534565
-0.000537447
-0.000539791
-0.000541597
-0.000542863
-0.000543586
-0.000543818
-0.000543609
-0.000542909
-0.000541666
-0.000539883
0.00042833
0.0004232
0.000417146
0.000410186
0.000402339
0.000393626
0.000384073
0.000373706
0.000362553
0.000350646
0.000338016
0.000324699
0.00031073
0.000296146
0.000280986
0.000265288
0.000249093
0.000232442
0.000215375
0.000197934
0.000180162
0.000162098
0.000143785
0.000125262
0.000106572
8.77525e-05
6.88431e-05
4.98817e-05
3.09051e-05
1.19492e-05
-6.95152e-06
-2.57637e-05
-4.44554e-05
-6.29959e-05
-8.13561e-05
-9.95082e-05
-0.000117426
-0.000135085
-0.00015246
-0.000169532
-0.000186278
-0.000202681
-0.000218722
-0.000234384
-0.000249653
-0.000264516
-0.000278959
-0.00029297
-0.000306541
-0.00031966
-0.00033232
-0.000344514
-0.000356235
-0.000367476
-0.000378234
-0.000388503
-0.00039828
-0.000407561
-0.000416345
-0.000424628
-0.000432409
-0.000439686
-0.000446459
-0.000452727
-0.000458488
-0.000463743
-0.000468492
-0.000472734
-0.000476469
-0.000479697
-0.00048242
-0.000484636
-0.000486347
-0.000487549
-0.000488241
-0.000488466
-0.000488264
-0.000487595
-0.000486415
-0.000484727
0.000389405
0.000384889
0.00037956
0.000373433
0.000366525
0.000358853
0.00035044
0.000341306
0.000331477
0.000320979
0.000309838
0.000298085
0.000285748
0.000272861
0.000259455
0.000245564
0.000231222
0.000216464
0.000201325
0.00018584
0.000170045
0.000153976
0.000137668
0.000121157
0.000104478
8.76645e-05
7.07518e-05
5.37725e-05
3.67593e-05
1.97437e-05
2.75651e-06
-1.41725e-05
-3.10146e-05
-4.77422e-05
-6.43288e-05
-8.07491e-05
-9.69789e-05
-0.000112995
-0.000128776
-0.000144301
-0.000159551
-0.000174508
-0.000189154
-0.000203474
-0.000217452
-0.000231075
-0.000244331
-0.000257207
-0.000269693
-0.000281779
-0.000293456
-0.000304716
-0.000315551
-0.000325955
-0.000335921
-0.000345446
-0.000354523
-0.000363148
-0.000371319
-0.000379031
-0.000386282
-0.00039307
-0.000399393
-0.000405248
-0.000410634
-0.000415551
-0.000419997
-0.000423971
-0.000427473
-0.000430503
-0.000433059
-0.000435142
-0.000436753
-0.000437887
-0.000438544
-0.000438759
-0.000438567
-0.000437932
-0.00043682
-0.000435232
0.000353514
0.000349532
0.000344835
0.000339433
0.000333342
0.000326577
0.000319155
0.000311096
0.000302421
0.00029315
0.000283309
0.00027292
0.000262011
0.000250608
0.000238739
0.000226432
0.000213716
0.000200622
0.000187179
0.000173418
0.00015937
0.000145065
0.000130534
0.000115808
0.000100918
8.58927e-05
7.07631e-05
5.55579e-05
4.03059e-05
2.5035e-05
9.7726e-06
-5.45478e-06
-2.06214e-05
-3.57024e-05
-5.06739e-05
-6.55126e-05
-8.01967e-05
-9.47048e-05
-0.000109017
-0.000123114
-0.000136977
-0.00015059
-0.000163936
-0.000177
-0.000189768
-0.000202225
-0.00021436
-0.000226161
-0.000237617
-0.000248718
-0.000259455
-0.000269819
-0.000279802
-0.000289397
-0.000298599
-0.0003074
-0.000315795
-0.00032378
-0.00033135
-0.000338502
-0.000345231
-0.000351535
-0.000357411
-0.000362857
-0.00036787
-0.000372449
-0.000376592
-0.000380298
-0.000383566
-0.000386394
-0.000388783
-0.000390731
-0.000392239
-0.000393303
-0.000393923
-0.000394128
-0.000393946
-0.000393348
-0.000392305
-0.00039082
0.000320548
0.000317032
0.000312884
0.000308115
0.000302736
0.000296761
0.000290205
0.000283083
0.000275414
0.000267217
0.000258511
0.000249317
0.000239657
0.000229555
0.000219033
0.000208117
0.000196831
0.000185201
0.000173253
0.000161014
0.000148509
0.000135765
0.00012281
0.00010967
9.63705e-05
8.29392e-05
6.94017e-05
5.57837e-05
4.21105e-05
2.84069e-05
1.46971e-05
1.00492e-06
-1.26467e-05
-2.62354e-05
-3.97395e-05
-5.31381e-05
-6.6411e-05
-7.9539e-05
-9.25034e-05
-0.000105287
-0.000117871
-0.000130242
-0.000142383
-0.000154279
-0.000165918
-0.000177286
-0.000188371
-0.000199162
-0.000209647
-0.000219818
-0.000229664
-0.000239177
-0.000248349
-0.000257173
-0.000265642
-0.000273749
-0.000281488
-0.000288856
-0.000295845
-0.000302453
-0.000308676
-0.000314509
-0.00031995
-0.000324995
-0.000329642
-0.00033389
-0.000337735
-0.000341176
-0.000344213
-0.000346842
-0.000349065
-0.000350879
-0.000352284
-0.000353278
-0.000353859
-0.000354053
-0.000353881