/*--------------------------------*- C++ -*----------------------------------*\
| =========                 |                                                 |
| \\      /  F ield         | OpenFOAM: The Open Source CFD Toolbox           |
|  \\    /   O peration     | Version:  2306                                  |
|   \\  /    A nd           | Website:  www.openfoam.com                      |
|    \\/     M anipulation  |                                                 |
\*---------------------------------------------------------------------------*/
FoamFile
{
    version     2.0;
    format      ascii;
    arch        "LSB;label=32;scalar=64";
    class       surfaceScalarField;
    location    "87.5";
    object      phi;
}
// * * * * * * * * * * * * * * * * * * * * * * * * * * * * * * * * * * * * * //

dimensions      [0 3 -1 0 0 0 0];

oriented        oriented;

internalField   nonuniform List<scalar> 
37980
(
1.05146
4.52256
-8.96505e-09
1.2602
4.51597
-9.29386e-09
1.47565
4.50925
-9.79497e-09
1.69781
4.50254
-1.06986e-08
1.92771
4.49481
-1.18508e-08
2.17106
4.48136
-1.34907e-08
2.4479
4.44786
-1.22435e-08
2.81751
4.3551
-1.08264e-08
3.4487
4.09351
-7.88749e-09
4.80554
3.36787
5.7251e-08
3.34887
1.45667
5.98441e-09
2.42607
0.922795
3.69316e-08
1.89135
0.534718
1.8861e-08
1.55896
0.332394
-7.52115e-10
1.29644
0.262515
1.35409e-09
1.08526
0.211185
3.45862e-09
0.922853
0.162407
3.52546e-09
0.804009
0.118843
2.66419e-09
0.720846
0.083163
1.81673e-09
0.663925
0.0569215
1.11798e-09
0.625042
0.038883
5.81924e-10
0.598007
0.0270351
2.21968e-10
0.578391
0.0196163
-8.63941e-12
0.563146
0.0152446
-9.25953e-11
0.550265
0.0128808
-1.1702e-10
0.538489
0.0117761
-6.83216e-11
0.527075
0.0114144
-2.68247e-11
0.51562
0.0114551
3.41479e-11
0.503936
0.0116839
6.02058e-11
0.491962
0.0119733
9.03073e-11
0.47971
0.0122523
8.76863e-11
0.467224
0.0124861
9.33579e-11
0.454563
0.0126607
7.66295e-11
0.441789
0.0127744
7.40581e-11
0.428957
0.0128314
5.62719e-11
0.416118
0.012839
5.43595e-11
0.403313
0.012805
4.02847e-11
0.390576
0.0127371
4.085e-11
0.377934
0.0126423
3.03918e-11
0.365407
0.0125267
3.2508e-11
0.353012
0.0123955
2.44113e-11
0.340759
0.0122531
2.70182e-11
0.328656
0.012103
2.03748e-11
0.316707
0.0119482
2.29378e-11
0.304916
0.0117911
1.73212e-11
0.293283
0.0116335
1.9684e-11
0.281806
0.0114769
1.49192e-11
0.270483
0.0113227
1.70713e-11
0.259312
0.0111717
1.30573e-11
0.248287
0.0110247
1.50123e-11
0.237405
0.0108822
1.16567e-11
0.22666
0.0107447
1.34187e-11
0.216047
0.0106125
1.06284e-11
0.205562
0.0104858
1.21943e-11
0.195197
0.0103648
9.88384e-12
0.184947
0.0102496
1.12503e-11
0.174807
0.0101402
9.34829e-12
0.16477
0.0100367
1.05167e-11
0.154831
0.00993906
8.96782e-12
0.144984
0.00984723
9.9439e-12
0.135223
0.00976117
8.70878e-12
0.125542
0.00968082
9.5022e-12
0.115936
0.00960611
8.55414e-12
0.106399
0.00953695
9.17487e-12
0.0969256
0.00947325
8.49421e-12
0.0875107
0.00941491
8.94421e-12
0.0781489
0.00936182
8.50351e-12
0.068835
0.00931388
8.75726e-12
0.059564
0.00927099
8.49643e-12
0.0503309
0.00923308
8.49543e-12
0.0411308
0.0092001
8.36904e-12
0.0319587
0.00917209
8.16312e-12
0.0228096
0.00914916
8.31983e-12
0.0136779
0.00913162
7.57206e-12
0.00455786
0.00912008
6.11106e-12
-0.00455804
0.00911591
2.53566e-13
-0.0136781
0.00912007
1.34611e-11
-0.0228097
0.00913161
1.18126e-11
-0.0319589
0.00914915
2.30812e-11
0.00917207
2.75184e-11
2.18744
4.0907
1.92146e-10
2.64753
4.05588
-7.82176e-10
3.14464
4.01214
-2.03961e-09
3.68998
3.9572
-4.50338e-09
4.29744
3.88735
-8.66943e-09
4.98261
3.79618
-1.28776e-08
5.75796
3.67251
-1.53834e-08
6.61616
3.49689
-2.02304e-08
7.47243
3.23725
-2.2233e-08
7.98906
2.85123
-2.25256e-08
7.0994
2.34633
3.68601e-09
6.13071
1.89149
2.23736e-08
5.22915
1.43628
2.15586e-08
4.49198
1.06957
1.13831e-08
3.93354
0.820956
7.77971e-09
3.49994
0.644783
5.24925e-09
3.15365
0.508691
3.19426e-09
2.87347
0.399026
1.99027e-09
2.64531
0.311321
1.15932e-09
2.45875
0.243486
4.00558e-10
2.30494
0.192694
-8.27904e-11
2.17629
0.15568
-3.53059e-10
2.06665
0.129261
-4.39587e-10
1.97122
0.110672
-4.24136e-10
1.88642
0.0976768
-3.449e-10
1.80964
0.0885626
-2.49065e-10
1.73898
0.0820733
-1.57494e-10
1.67311
0.0773223
-8.86753e-11
1.61109
0.0737044
-4.12795e-11
1.55225
0.0708186
-1.78157e-11
1.49609
0.0684057
-6.95886e-12
1.44228
0.0663019
-8.41901e-12
1.39053
0.0644058
-1.13906e-11
1.34065
0.0626555
-1.81574e-11
1.29247
0.0610137
-2.13563e-11
1.24585
0.0594585
-2.54633e-11
1.20068
0.0579768
-2.55218e-11
1.15685
0.056561
-2.65013e-11
1.11429
0.0552065
-2.4473e-11
1.0729
0.0539106
-2.39151e-11
1.03263
0.0526713
-2.12987e-11
0.993395
0.0514871
-2.03966e-11
0.955141
0.0503566
-1.79696e-11
0.917811
0.0492787
-1.71909e-11
0.88135
0.0482519
-1.51517e-11
0.845708
0.0472751
-1.45652e-11
0.810839
0.0463467
-1.28771e-11
0.776696
0.0454653
-1.24343e-11
0.743238
0.0446294
-1.10226e-11
0.710426
0.0438376
-1.06771e-11
0.67822
0.0430883
-9.48986e-12
0.646584
0.0423801
-9.21923e-12
0.615485
0.0417115
-8.22565e-12
0.58489
0.0410812
-8.02162e-12
0.554767
0.0404879
-7.20331e-12
0.525086
0.0399301
-7.0622e-12
0.49582
0.0394067
-6.404e-12
0.46694
0.0389166
-6.32065e-12
0.438421
0.0384585
-5.80809e-12
0.410236
0.0380314
-5.77585e-12
0.382363
0.0376345
-5.39439e-12
0.354777
0.0372666
-5.40459e-12
0.327456
0.0369269
-5.14169e-12
0.300379
0.0366147
-5.1869e-12
0.273523
0.0363291
-5.03413e-12
0.246868
0.0360694
-5.11294e-12
0.220395
0.0358351
-5.07802e-12
0.194084
0.0356254
-5.21532e-12
0.167915
0.0354399
-5.34755e-12
0.141869
0.0352783
-5.61142e-12
0.115929
0.0351402
-5.96778e-12
0.090076
0.0350255
-6.33088e-12
0.0642906
0.0349345
-6.73733e-12
0.0385545
0.0348677
-7.37757e-12
0.0128483
0.0348262
-9.40221e-12
-0.0128476
0.0348119
-1.48138e-11
-0.0385537
0.0348262
-5.90096e-12
-0.0642899
0.0348677
-8.09087e-12
-0.0900752
0.0349345
2.55323e-12
0.0350255
4.91488e-12
2.22029
3.67502
-9.31259e-10
2.6453
3.63087
-1.34871e-09
3.08191
3.57554
-1.75762e-09
3.53242
3.50669
-2.72021e-09
3.99861
3.42116
-4.23477e-09
4.48
3.31479
-5.37687e-09
4.9701
3.1824
-5.52103e-09
5.44874
3.01825
-4.53977e-09
5.86827
2.81772
-2.94048e-09
6.13912
2.58038
6.43882e-11
6.17262
2.31283
2.26288e-09
6.03675
2.02736
4.59221e-09
5.74347
1.72955
6.6947e-09
5.36676
1.44628
5.83534e-09
4.9919
1.19582
4.23182e-09
4.65318
0.983497
2.78847e-09
4.35372
0.808155
1.74937e-09
4.08721
0.665533
1.05602e-09
3.84798
0.550557
5.10291e-10
3.63247
0.458993
2.35116e-11
3.43794
0.387228
-2.88707e-10
3.26184
0.331774
-4.44106e-10
3.10179
0.289313
-4.69757e-10
2.95559
0.256873
-4.23459e-10
2.8213
0.231964
-3.37888e-10
2.69726
0.212605
-2.47644e-10
2.58204
0.197287
-1.6716e-10
2.47447
0.184895
-1.09635e-10
2.37355
0.174625
-7.10806e-11
2.27846
0.165912
-5.32063e-11
2.1885
0.158361
-4.48829e-11
2.10311
0.151696
-4.64375e-11
2.02179
0.145724
-4.80742e-11
1.94413
0.140312
-5.25199e-11
1.86978
0.135362
-5.32439e-11
1.79844
0.130803
-5.46974e-11
1.72983
0.126582
-5.24559e-11
1.66374
0.122659
-5.11876e-11
1.59994
0.119001
-4.73395e-11
1.53827
0.115582
-4.50047e-11
1.47856
0.112382
-4.09808e-11
1.42066
0.109382
-3.86631e-11
1.36445
0.106567
-3.51259e-11
1.30981
0.103923
-3.31937e-11
1.25662
0.101439
-3.026e-11
1.20479
0.0991046
-2.87181e-11
1.15423
0.0969096
-2.63002e-11
1.10485
0.0948459
-2.50601e-11
1.05657
0.0929058
-2.30495e-11
1.00933
0.0910822
-2.20348e-11
0.963048
0.0893686
-2.03516e-11
0.917668
0.0877594
-1.95162e-11
0.873131
0.0862489
-1.81089e-11
0.82938
0.0848322
-1.74255e-11
0.786363
0.0835048
-1.62579e-11
0.744031
0.0822625
-1.57068e-11
0.702336
0.0811013
-1.47495e-11
0.661235
0.0800178
-1.43136e-11
0.620685
0.0790085
-1.35411e-11
0.580646
0.0780706
-1.3203e-11
0.541079
0.0772012
-1.2592e-11
0.501948
0.0763977
-1.23352e-11
0.463217
0.0756579
-1.1865e-11
0.424852
0.0749796
-1.16755e-11
0.38682
0.0743609
-1.13322e-11
0.34909
0.0738
-1.1204e-11
0.311629
0.0732953
-1.09925e-11
0.274409
0.0728456
-1.09496e-11
0.2374
0.0724495
-1.09226e-11
0.200572
0.0721063
-1.1036e-11
0.163897
0.0718151
-1.12634e-11
0.127347
0.0715756
-1.15187e-11
0.0908932
0.0713879
-1.1876e-11
0.0545088
0.0712522
-1.267e-11
0.0181654
0.0711695
-1.52532e-11
-0.0181643
0.0711416
-2.23689e-11
-0.0545076
0.0711695
-1.11907e-11
-0.090892
0.0712522
-1.82374e-11
-0.127345
0.0713879
-4.55071e-12
0.0715756
-5.80496e-12
1.99614
3.30914
3.45417e-10
2.3639
3.26311
2.35221e-10
2.73322
3.20622
1.57952e-10
3.10305
3.13685
3.24407e-14
3.47111
3.0531
-3.22927e-10
3.83307
2.95283
-2.73024e-10
4.18148
2.834
-1.74645e-10
4.50468
2.69506
3.93272e-10
4.78672
2.53568
9.78647e-10
5.00998
2.35712
1.78181e-09
5.1607
2.16211
2.34392e-09
5.23302
1.95504
2.70447e-09
5.22074
1.74183
2.65552e-09
5.13559
1.53143
2.31467e-09
4.99925
1.33216
1.80699e-09
4.83223
1.15052
1.28792e-09
4.64954
0.990842
8.25011e-10
4.46043
0.854645
4.25307e-10
4.27018
0.740809
1.31419e-10
4.08232
0.64685
-7.46959e-11
3.89954
0.570011
-1.72794e-10
3.72378
0.507538
-1.88493e-10
3.55627
0.456819
-1.47518e-10
3.39763
0.415511
-7.97799e-11
3.24798
0.381618
-7.20931e-12
3.10708
0.353504
5.52188e-11
2.97449
0.329881
1.00082e-10
2.84963
0.309753
1.24576e-10
2.73189
0.292366
1.33119e-10
2.62064
0.277155
1.27884e-10
2.51531
0.263697
1.16815e-10
2.41533
0.251674
1.01057e-10
2.32021
0.240844
8.68337e-11
2.2295
0.231022
7.27152e-11
2.1428
0.222063
6.2486e-11
2.05975
0.213853
5.32356e-11
1.98003
0.206299
4.74122e-11
1.90337
0.199324
4.19073e-11
1.8295
0.192868
3.87529e-11
1.75821
0.186876
3.52307e-11
1.68928
0.181305
3.32844e-11
1.62255
0.176116
3.06569e-11
1.55784
0.171276
2.92047e-11
1.49501
0.166756
2.70307e-11
1.43392
0.162531
2.58387e-11
1.37444
0.158579
2.39928e-11
1.31647
0.15488
2.30078e-11
1.2599
0.151415
2.1454e-11
1.20464
0.148171
2.06574e-11
1.15059
0.145131
1.93649e-11
1.09768
0.142283
1.873e-11
1.04582
0.139617
1.7659e-11
0.994947
0.13712
1.71525e-11
0.944995
0.134784
1.62618e-11
0.8959
0.1326
1.58518e-11
0.847603
0.13056
1.51064e-11
0.800048
0.128657
1.47671e-11
0.753182
0.126884
1.41396e-11
0.706956
0.125235
1.38532e-11
0.661321
0.123705
1.33254e-11
0.616234
0.122289
1.30797e-11
0.57165
0.120982
1.26398e-11
0.527528
0.11978
1.24277e-11
0.483828
0.11868
1.2069e-11
0.440511
0.117677
1.18856e-11
0.397541
0.11677
1.16029e-11
0.354881
0.115955
1.14413e-11
0.312496
0.115231
1.12222e-11
0.270351
0.114594
1.10614e-11
0.228414
0.114044
1.08794e-11
0.18665
0.113579
1.07198e-11
0.145027
0.113198
1.06537e-11
0.103514
0.112901
1.07265e-11
0.0620781
0.112688
1.07552e-11
0.0206881
0.11256
9.89782e-12
-0.0206868
0.112516
6.17443e-12
-0.0620768
0.11256
1.30121e-11
-0.103513
0.112688
1.35774e-11
-0.145026
0.112901
2.22476e-11
0.113198
2.66973e-11
1.8206
2.97955
-2.49565e-10
2.14856
2.93515
-3.28699e-10
2.47374
2.88104
-2.46223e-10
2.79431
2.81628
-2.80477e-10
3.10754
2.73986
-2.97931e-10
3.40957
2.65081
-1.93122e-10
3.69523
2.54834
-4.47935e-11
3.95814
2.43215
2.38272e-10
4.19122
2.30259
5.13623e-10
4.3875
2.16085
8.15339e-10
4.54065
2.00896
9.87318e-10
4.64577
1.84993
1.04241e-09
4.69993
1.68767
9.26304e-10
4.70445
1.5269
7.23439e-10
4.66414
1.37247
4.72839e-10
4.58601
1.22865
2.0806e-10
4.47831
1.09855
-3.66409e-11
4.34934
0.983609
-2.39034e-10
4.20644
0.88371
-3.67472e-10
4.05554
0.797751
-4.284e-10
3.90133
0.724219
-4.25969e-10
3.74739
0.661477
-3.8378e-10
3.59629
0.607917
-3.16885e-10
3.44976
0.562048
-2.44518e-10
3.30882
0.522555
-1.76297e-10
3.174
0.488322
-1.22417e-10
3.04546
0.458424
-8.21949e-11
2.9231
0.432111
-5.91355e-11
2.80668
0.408784
-4.55498e-11
2.69588
0.387961
-4.29986e-11
2.59032
0.369259
-4.23845e-11
2.48962
0.352369
-4.65106e-11
2.39342
0.337043
-4.79202e-11
2.30137
0.323075
-5.10338e-11
2.21313
0.310299
-5.02788e-11
2.12841
0.298572
-5.07039e-11
2.04693
0.287778
-4.78652e-11
1.96844
0.277817
-4.65506e-11
1.89271
0.268602
-4.287e-11
1.81952
0.260061
-4.09933e-11
1.7487
0.25213
-3.73863e-11
1.68006
0.244755
-3.55946e-11
1.61345
0.237886
-3.24309e-11
1.54872
0.231482
-3.09225e-11
1.48575
0.225505
-2.82496e-11
1.42441
0.219922
-2.70182e-11
1.36458
0.214703
-2.47718e-11
1.30618
0.209823
-2.37636e-11
1.24909
0.205258
-2.18715e-11
1.19323
0.200987
-2.10395e-11
1.13853
0.19699
-1.94458e-11
1.08489
0.193251
-1.87605e-11
1.03226
0.189754
-1.74236e-11
0.980557
0.186485
-1.68644e-11
0.929726
0.183431
-1.57524e-11
0.879705
0.18058
-1.53019e-11
0.830438
0.177923
-1.43867e-11
0.781872
0.17545
-1.40286e-11
0.733956
0.173151
-1.32848e-11
0.686642
0.171019
-1.30031e-11
0.639883
0.169047
-1.24081e-11
0.593637
0.167229
-1.21872e-11
0.547859
0.165557
-1.17225e-11
0.50251
0.164028
-1.155e-11
0.457551
0.162636
-1.12014e-11
0.412944
0.161378
-1.10707e-11
0.368651
0.160248
-1.08379e-11
0.324638
0.159244
-1.07607e-11
0.280868
0.158364
-1.06755e-11
0.237308
0.157604
-1.06895e-11
0.193924
0.156963
-1.07792e-11
0.150683
0.156439
-1.08317e-11
0.107553
0.156032
-1.09751e-11
0.0645011
0.15574
-1.15596e-11
0.0214956
0.155565
-1.40519e-11
-0.0214944
0.155506
-2.13574e-11
-0.0644998
0.155565
-1.00707e-11
-0.107552
0.15574
-1.82309e-11
-0.150682
0.156032
-4.71723e-12
0.156439
-7.66442e-12
1.65064
2.68352
-6.74165e-11
1.94308
2.6427
1.48097e-11
2.23056
2.59356
2.2238e-11
2.51122
2.53562
1.30226e-10
2.78264
2.46845
1.19068e-10
3.04178
2.39167
1.40091e-10
3.28499
2.30513
1.80501e-10
3.50811
2.20902
2.61955e-10
3.70676
2.10395
3.73891e-10
3.87657
1.99103
4.78843e-10
4.01359
1.87194
5.378e-10
4.11466
1.74886
5.60163e-10
4.17793
1.62441
5.25173e-10
4.20339
1.50144
4.52382e-10
4.19308
1.38277
3.54161e-10
4.15096
1.27077
2.49027e-10
4.08238
1.16713
1.57896e-10
3.99328
1.07271
9.01498e-11
3.88928
0.987701
5.25298e-11
3.77528
0.911753
4.20391e-11
3.65527
0.844228
5.11153e-11
3.53242
0.784333
7.5491e-11
3.40911
0.731219
1.02803e-10
3.28711
0.684056
1.30656e-10
3.16759
0.64207
1.50423e-10
3.05134
0.604571
1.63182e-10
2.93881
0.570955
1.66103e-10
2.83022
0.540706
1.62259e-10
2.72562
0.513385
1.52749e-10
2.62496
0.48862
1.40181e-10
2.52812
0.466098
1.26686e-10
2.43494
0.44555
1.1316e-10
2.34523
0.426751
1.01273e-10
2.2588
0.409504
9.04397e-11
2.17545
0.393644
8.17758e-11
2.095
0.379025
7.39857e-11
2.01726
0.365523
6.79824e-11
1.94205
0.353027
6.23453e-11
1.8692
0.341444
5.8005e-11
1.79858
0.330689
5.3657e-11
1.73002
0.320689
5.02812e-11
1.66339
0.31138
4.67262e-11
1.59857
0.302702
4.39698e-11
1.53545
0.294606
4.09866e-11
1.47391
0.287047
3.8702e-11
1.41385
0.279983
3.61916e-11
1.35517
0.273378
3.43019e-11
1.29779
0.267201
3.21987e-11
1.24163
0.261421
3.0643e-11
1.18661
0.256012
2.88866e-11
1.13265
0.25095
2.76074e-11
1.07968
0.246215
2.61401e-11
1.02765
0.241785
2.50843e-11
0.976493
0.237644
2.38553e-11
0.926148
0.233776
2.29795e-11
0.876562
0.230166
2.19479e-11
0.827685
0.226801
2.1217e-11
0.779467
0.223668
2.03511e-11
0.731861
0.220756
1.97387e-11
0.684823
0.218057
1.90152e-11
0.63831
0.21556
1.85025e-11
0.592281
0.213258
1.79052e-11
0.546697
0.211142
1.74779e-11
0.501519
0.209207
1.69952e-11
0.456709
0.207446
1.66435e-11
0.412234
0.205853
1.62687e-11
0.368057
0.204425
1.59875e-11
0.324145
0.203156
1.57175e-11
0.280465
0.202044
1.55065e-11
0.236984
0.201085
1.53463e-11
0.19367
0.200276
1.52502e-11
0.150493
0.199616
1.53126e-11
0.10742
0.199104
1.55729e-11
0.0644228
0.198738
1.58721e-11
0.0214697
0.198518
1.55284e-11
-0.0214685
0.198445
1.28591e-11
-0.0644216
0.198518
1.81629e-11
-0.107419
0.198738
1.95961e-11
-0.150491
0.199104
2.65802e-11
0.199616
3.04513e-11
1.46755
2.42251
-5.07115e-10
1.72379
2.38646
-5.01166e-10
1.97384
2.3435
-3.26116e-10
2.21597
2.29349
-2.6761e-10
2.4481
2.23632
-2.62281e-10
2.66778
2.17198
-2.55649e-10
2.87228
2.10063
-2.50135e-10
3.05865
2.02266
-2.22509e-10
3.2239
1.93869
-2.03142e-10
3.36523
1.8497
-1.76355e-10
3.48028
1.75689
-1.75262e-10
3.56737
1.66177
-1.66506e-10
3.62581
1.56597
-1.81562e-10
3.65608
1.47117
-2.017e-10
3.6599
1.37895
-2.23972e-10
3.64002
1.29065
-2.4257e-10
3.59989
1.20725
-2.51355e-10
3.54323
1.12938
-2.5037e-10
3.47362
1.05731
-2.37215e-10
3.39433
0.99104
-2.16211e-10
3.30818
0.930378
-1.89033e-10
3.21751
0.875001
-1.59777e-10
3.12421
0.824519
-1.31402e-10
3.02976
0.778515
-1.06752e-10
2.93525
0.736573
-8.69533e-11
2.84152
0.698299
-7.28339e-11
2.74915
0.663325
-6.30514e-11
2.65854
0.631319
-5.82979e-11
2.56994
0.601983
-5.51653e-11
2.48352
0.575048
-5.49578e-11
2.39934
0.550276
-5.39525e-11
2.31743
0.527457
-5.44651e-11
2.23778
0.506402
-5.3051e-11
2.16034
0.486944
-5.2718e-11
2.08505
0.468935
-5.03456e-11
2.01183
0.452243
-4.91408e-11
1.9406
0.436751
-4.61962e-11
1.87128
0.422352
-4.45812e-11
1.80377
0.408955
-4.15541e-11
1.73798
0.396475
-3.99062e-11
1.67383
0.384837
-3.70838e-11
1.61124
0.373975
-3.55775e-11
1.55011
0.363828
-3.30589e-11
1.49037
0.354343
-3.17351e-11
1.43195
0.34547
-2.95227e-11
1.37477
0.337166
-2.83707e-11
1.31876
0.329391
-2.64401e-11
1.26385
0.322109
-2.5442e-11
1.20998
0.315288
-2.37657e-11
1.15709
0.308899
-2.29052e-11
1.10513
0.302914
-2.14607e-11
1.05403
0.29731
-2.07268e-11
1.00375
0.292065
-1.94923e-11
0.95424
0.287158
-1.88715e-11
0.905445
0.282572
-1.78239e-11
0.857322
0.278288
-1.73019e-11
0.809829
0.274294
-1.64222e-11
0.762923
0.270573
-1.59883e-11
0.716565
0.267115
-1.52586e-11
0.670715
0.263907
-1.48997e-11
0.625336
0.260939
-1.43015e-11
0.580393
0.258201
-1.40036e-11
0.53585
0.255685
-1.35206e-11
0.491674
0.253383
-1.32719e-11
0.447832
0.251288
-1.28931e-11
0.404291
0.249394
-1.26881e-11
0.361022
0.247694
-1.24119e-11
0.317993
0.246186
-1.22561e-11
0.275174
0.244863
-1.20995e-11
0.232536
0.243722
-1.20081e-11
0.190051
0.242761
-1.19796e-11
0.14769
0.241978
-1.19067e-11
0.105425
0.241369
-1.19345e-11
0.063228
0.240935
-1.22758e-11
0.0210719
0.240674
-1.40782e-11
-0.0210707
0.240587
-1.94031e-11
-0.0632269
0.240674
-1.18338e-11
-0.105424
0.240935
-1.91992e-11
-0.147689
0.241369
-9.99048e-12
0.241978
-1.36878e-11
1.27044
2.19825
-2.91605e-10
1.48943
2.16747
-1.47036e-10
1.70183
2.1311
-3.54548e-11
1.90616
2.08917
1.55418e-10
2.10074
2.04174
1.52303e-10
2.28374
1.98898
1.21816e-10
2.45322
1.93115
8.9856e-11
2.60722
1.86865
8.13502e-11
2.74388
1.80204
7.23034e-11
2.86155
1.73203
7.52579e-11
2.95899
1.65945
7.16279e-11
3.03548
1.58528
7.42968e-11
3.09092
1.51053
7.04956e-11
3.12588
1.43621
7.20886e-11
3.14158
1.36326
6.99548e-11
3.13973
1.2925
7.38048e-11
3.12242
1.22456
7.58471e-11
3.09189
1.15991
8.37726e-11
3.05037
1.09883
8.95982e-11
2.99997
1.04145
9.97194e-11
2.94258
0.987769
1.05932e-10
2.87986
0.937719
1.1409e-10
2.81322
0.891156
1.16824e-10
2.74384
0.847902
1.17112e-10
2.67265
0.807757
1.23276e-10
2.60043
0.770517
1.13263e-10
2.52778
0.735975
1.08149e-10
2.45517
0.70393
1.02422e-10
2.38296
0.674193
9.45034e-11
2.31143
0.646583
8.76869e-11
2.24077
0.620933
8.03196e-11
2.17114
0.597089
7.41437e-11
2.10263
0.574905
6.80837e-11
2.03533
0.554251
6.3027e-11
1.96926
0.535005
5.82656e-11
1.90444
0.517058
5.41881e-11
1.84089
0.500308
5.04043e-11
1.77858
0.484663
4.70302e-11
1.71749
0.470039
4.39288e-11
1.65761
0.456361
4.10635e-11
1.59888
0.443559
3.84668e-11
1.54129
0.43157
3.60087e-11
1.48478
0.420335
3.38225e-11
1.42932
0.409804
3.17203e-11
1.37486
0.399928
2.98882e-11
1.32137
0.390663
2.81032e-11
1.26879
0.38197
2.65737e-11
1.21708
0.373813
2.50641e-11
1.16621
0.366159
2.37891e-11
1.11613
0.358978
2.25123e-11
1.0668
0.352241
2.14438e-11
1.01819
0.345925
2.0349e-11
0.97025
0.340005
1.94433e-11
0.922947
0.334461
1.85389e-11
0.876245
0.329273
1.78215e-11
0.83011
0.324424
1.70935e-11
0.784506
0.319898
1.65103e-11
0.739401
0.315678
1.59015e-11
0.694762
0.311753
1.54005e-11
0.650559
0.30811
1.48744e-11
0.60676
0.304737
1.44401e-11
0.563336
0.301625
1.39981e-11
0.520258
0.298763
1.36314e-11
0.477498
0.296143
1.32721e-11
0.435027
0.293759
1.29662e-11
0.392818
0.291602
1.26821e-11
0.350846
0.289667
1.24278e-11
0.309083
0.287948
1.22138e-11
0.267504
0.286442
1.20317e-11
0.226084
0.285143
1.19449e-11
0.184797
0.284048
1.19208e-11
0.143619
0.283156
1.20476e-11
0.102525
0.282463
1.23033e-11
0.0614914
0.281969
1.27409e-11
0.0204935
0.281672
1.31575e-11
-0.0204925
0.281573
1.30863e-11
-0.0614904
0.281672
1.34875e-11
-0.102524
0.281969
1.61512e-11
-0.143618
0.282463
1.74743e-11
0.283156
2.05705e-11
1.07854
2.00886
-5.67927e-10
1.26282
1.98319
-4.82578e-10
1.4409
1.95303
-2.61624e-10
1.61158
1.91848
-1.15829e-10
1.77363
1.87969
-1.12204e-10
1.92574
1.83687
-1.37719e-10
2.06662
1.79028
-1.66547e-10
2.195
1.74028
-1.78379e-10
2.30975
1.68728
-1.91013e-10
2.40996
1.63182
-1.91934e-10
2.49496
1.57445
-1.96134e-10
2.56442
1.51582
-1.90782e-10
2.61839
1.45656
-1.88472e-10
2.65728
1.39732
-1.78091e-10
2.68185
1.33868
-1.70375e-10
2.69316
1.28119
-1.56284e-10
2.69244
1.22528
-1.45091e-10
2.68106
1.17129
-1.29544e-10
2.6604
1.11949
-1.17634e-10
2.63181
1.07004
-1.03433e-10
2.59655
1.02303
-9.34977e-11
2.55577
0.978495
-8.28503e-11
2.51051
0.936421
-7.63449e-11
2.46165
0.896758
-6.99126e-11
2.40998
0.859431
-6.67524e-11
2.35614
0.824348
-6.32813e-11
2.30071
0.791406
-6.13657e-11
2.24415
0.760496
-6.27481e-11
2.18684
0.731505
-5.82333e-11
2.1291
0.704322
-5.82405e-11
2.07119
0.678837
-5.70572e-11
2.01334
0.654945
-5.5764e-11
1.9557
0.632542
-5.40586e-11
1.89842
0.611533
-5.25297e-11
1.8416
0.591826
-5.04838e-11
1.78532
0.573334
-4.88354e-11
1.72965
0.555978
-4.66484e-11
1.67463
0.539681
-4.50143e-11
1.6203
0.524375
-4.28457e-11
1.56666
0.509994
-4.13011e-11
1.51374
0.496479
-3.92352e-11
1.46154
0.483774
-3.78067e-11
1.41005
0.471827
-3.58719e-11
1.35926
0.460591
-3.45591e-11
1.30916
0.450023
-3.27872e-11
1.25975
0.440082
-3.15903e-11
1.21099
0.430731
-2.99582e-11
1.16286
0.421936
-2.88935e-11
1.11536
0.413665
-2.74382e-11
1.06845
0.405889
-2.64106e-11
1.02211
0.398581
-2.52531e-11
0.976315
0.391717
-2.37162e-11
0.931046
0.385274
-2.23556e-11
0.886275
0.379231
-2.19382e-11
0.84198
0.373569
-2.13336e-11
0.798134
0.36827
-2.09656e-11
0.754714
0.363317
-2.03643e-11
0.711696
0.358696
-1.98804e-11
0.669057
0.354393
-1.91056e-11
0.626772
0.350395
-1.85727e-11
0.584817
0.346691
-1.78966e-11
0.543172
0.343271
-1.74521e-11
0.501811
0.340123
-1.69123e-11
0.460714
0.337241
-1.6563e-11
0.419857
0.334616
-1.61562e-11
0.379219
0.33224
-1.58716e-11
0.338778
0.330108
-1.55209e-11
0.298512
0.328214
-1.51418e-11
0.258401
0.326553
-1.46646e-11
0.218423
0.325121
-1.42128e-11
0.178557
0.323914
-1.40805e-11
0.138783
0.32293
-1.45089e-11
0.0990805
0.322166
-1.44183e-11
0.0594283
0.321621
-1.45697e-11
0.0198064
0.321294
-1.55197e-11
-0.0198055
0.321185
-1.80515e-11
-0.0594274
0.321294
-1.50307e-11
-0.0990796
0.321621
-2.07472e-11
-0.138783
0.322166
-1.70395e-11
0.32293
-2.11083e-11
0.907743
1.8499
-4.07381e-10
1.06217
1.82876
-2.91948e-10
1.21119
1.80401
-1.1838e-10
1.35389
1.77578
4.55983e-11
1.48935
1.74423
3.77869e-11
1.61668
1.70954
3.18989e-12
1.73499
1.67197
-2.9551e-11
1.84348
1.63178
-4.09834e-11
1.94146
1.58931
-5.08651e-11
2.02835
1.54492
-4.78774e-11
2.10379
1.49901
-4.83331e-11
2.16761
1.45201
-3.87195e-11
2.21984
1.40433
-3.3902e-11
2.26074
1.35641
-2.06451e-11
2.29078
1.30865
-1.29638e-11
2.31056
1.2614
1.43785e-12
2.32085
1.21499
9.61731e-12
2.32246
1.16968
2.27457e-11
2.31626
1.12569
2.92943e-11
2.30312
1.08318
3.92918e-11
2.28388
1.04227
4.29064e-11
2.25934
1.00304
4.90146e-11
2.23023
0.965528
4.9553e-11
2.19724
0.929753
5.21793e-11
2.16096
0.895706
5.04561e-11
2.12195
0.863361
5.07009e-11
2.08068
0.832677
4.78201e-11
2.03757
0.803605
4.68584e-11
1.99299
0.776087
4.3592e-11
1.94725
0.75006
4.21492e-11
1.90063
0.725458
3.91928e-11
1.85336
0.702215
3.7656e-11
1.80563
0.680264
3.50509e-11
1.75763
0.659537
3.35578e-11
1.70949
0.639971
3.12877e-11
1.66132
0.621502
2.98683e-11
1.61323
0.60407
2.78828e-11
1.56529
0.587617
2.65477e-11
1.51758
0.572089
2.48089e-11
1.47014
0.557433
2.35745e-11
1.42301
0.543601
2.20617e-11
1.37624
0.530546
2.09449e-11
1.32984
0.518226
1.96423e-11
1.28383
0.506599
1.86525e-11
1.23823
0.495628
1.75407e-11
1.19303
0.485277
1.66755e-11
1.14825
0.475513
1.57314e-11
1.10388
0.466306
1.49809e-11
1.05992
0.457627
1.41785e-11
1.01636
0.449449
1.3527e-11
0.973192
0.441748
1.28411e-11
0.930409
0.4345
1.22646e-11
0.888
0.427684
1.16701e-11
0.845951
0.42128
1.11953e-11
0.804249
0.415271
1.07333e-11
0.762881
0.409638
1.03648e-11
0.72183
0.404367
9.99376e-12
0.681083
0.399443
9.68505e-12
0.640624
0.394853
9.36024e-12
0.600436
0.390583
9.08771e-12
0.560504
0.386624
8.80239e-12
0.520811
0.382964
8.57337e-12
0.481341
0.379594
8.33293e-12
0.442077
0.376505
8.1516e-12
0.403002
0.37369
7.95303e-12
0.364101
0.371141
7.81449e-12
0.325356
0.368853
7.65013e-12
0.286751
0.366819
7.554e-12
0.24827
0.365035
7.44613e-12
0.209894
0.363496
7.44544e-12
0.171609
0.362199
7.48374e-12
0.133398
0.361141
7.65364e-12
0.0952436
0.36032
7.88154e-12
0.05713
0.359734
8.41391e-12
0.0190409
0.359383
9.45663e-12
-0.0190401
0.359266
1.17215e-11
-0.0571292
0.359383
8.24137e-12
-0.0952428
0.359734
1.17965e-11
-0.133397
0.36032
8.40877e-12
0.361141
1.04448e-11
0.762984
1.71639
-3.53224e-10
0.892677
1.69907
-2.61528e-10
1.01785
1.67883
-9.76489e-11
1.13783
1.65581
3.84717e-11
1.25192
1.63013
1.91439e-11
1.3595
1.60197
-2.17108e-11
1.45995
1.57152
-5.8169e-11
1.55273
1.539
-7.24516e-11
1.6374
1.50465
-8.53744e-11
1.71357
1.46874
-8.54485e-11
1.78102
1.43156
-8.99891e-11
1.83962
1.3934
-8.4694e-11
1.8894
1.35456
-8.5316e-11
1.93048
1.31533
-7.75494e-11
1.96314
1.27599
-7.61633e-11
1.98774
1.2368
-6.77337e-11
2.00474
1.198
-6.57723e-11
2.01463
1.15979
-5.81136e-11
2.01797
1.12235
-5.6668e-11
2.01531
1.08583
-5.07037e-11
2.00723
1.05035
-5.03139e-11
1.99428
1.01599
-4.62871e-11
1.97698
0.982826
-4.68816e-11
1.95584
0.950895
-4.44488e-11
1.93132
0.920225
-4.55648e-11
1.90385
0.890826
-4.41167e-11
1.87384
0.862696
-4.52332e-11
1.84162
0.835821
-4.42252e-11
1.80753
0.810179
-4.49937e-11
1.77185
0.78574
-4.40778e-11
1.73483
0.762471
-4.43715e-11
1.69671
0.740334
-4.34056e-11
1.65769
0.719289
-4.32499e-11
1.61793
0.699293
-4.22089e-11
1.5776
0.680305
-4.16931e-11
1.53682
0.662281
-4.05978e-11
1.49571
0.645178
-3.98209e-11
1.45437
0.628955
-3.86971e-11
1.41289
0.613572
-3.77426e-11
1.37134
0.598988
-3.66125e-11
1.32977
0.585167
-3.55479e-11
1.28825
0.572071
-3.44308e-11
1.24681
0.559665
-3.33116e-11
1.20549
0.547917
-3.22264e-11
1.16432
0.536796
-3.1098e-11
1.12333
0.526271
-3.00621e-11
1.08253
0.516315
-2.8961e-11
1.04193
0.506901
-2.79896e-11
1.00156
0.498004
-2.69435e-11
0.961403
0.489601
-2.60468e-11
0.921481
0.48167
-2.50742e-11
0.881789
0.474191
-2.42582e-11
0.842329
0.467144
-2.337e-11
0.803098
0.460511
-2.26351e-11
0.764092
0.454276
-2.18342e-11
0.725307
0.448423
-2.11767e-11
0.686737
0.442938
-2.04651e-11
0.648374
0.437806
-1.98839e-11
0.61021
0.433016
-1.92618e-11
0.572237
0.428556
-1.87524e-11
0.534445
0.424416
-1.8216e-11
0.496824
0.420584
-1.77718e-11
0.459364
0.417054
-1.73169e-11
0.422054
0.413815
-1.69322e-11
0.384883
0.410861
-1.65559e-11
0.34784
0.408185
-1.62282e-11
0.310912
0.40578
-1.59316e-11
0.274088
0.403642
-1.56615e-11
0.237357
0.401766
-1.54492e-11
0.200705
0.400148
-1.52362e-11
0.164121
0.398783
-1.51217e-11
0.127592
0.39767
-1.49915e-11
0.0911067
0.396806
-1.50617e-11
0.0546519
0.396189
-1.51064e-11
0.0182155
0.39582
-1.53239e-11
-0.0182148
0.395696
-1.5234e-11
-0.0546511
0.39582
-1.66191e-11
-0.0911059
0.396189
-2.02523e-11
-0.127592
0.396806
-2.18602e-11
0.39767
-2.5931e-11
0.642969
1.6038
-3.5543e-10
0.752422
1.58962
-2.96028e-10
0.858196
1.57306
-1.29542e-10
0.959764
1.55424
-2.19373e-11
1.05662
1.53327
-3.64385e-11
1.1483
1.51029
-6.52541e-11
1.23437
1.48545
-8.75438e-11
1.31443
1.45893
-9.05806e-11
1.38818
1.43091
-9.27343e-11
1.45535
1.40158
-8.47897e-11
1.51576
1.37115
-8.15104e-11
1.56933
1.33983
-7.06745e-11
1.61605
1.30785
-6.57512e-11
1.65597
1.27541
-5.42084e-11
1.68925
1.24271
-4.8897e-11
1.7161
1.20995
-3.77697e-11
1.73679
1.1773
-3.28539e-11
1.75164
1.14494
-2.2945e-11
1.76099
1.113
-1.89681e-11
1.76522
1.0816
-1.07684e-11
1.76471
1.05086
-7.9821e-12
1.75984
1.02086
-1.61824e-12
1.75099
0.991677
2.66e-14
1.73853
0.963358
4.73003e-12
1.7228
0.93595
5.47357e-12
1.70415
0.909479
8.8417e-12
1.68288
0.883963
8.97165e-12
1.65929
0.859411
1.13356e-11
1.63365
0.835823
1.10851e-11
1.6062
0.81319
1.27107e-11
1.57717
0.791502
1.22382e-11
1.54676
0.77074
1.33193e-11
1.51517
0.750884
1.27207e-11
1.48255
0.731911
1.33995e-11
1.44906
0.713796
1.27375e-11
1.41483
0.696511
1.3123e-11
1.37998
0.680028
1.24414e-11
1.34461
0.66432
1.2621e-11
1.30883
0.649358
1.19525e-11
1.2727
0.635114
1.19945e-11
1.23631
0.621559
1.13609e-11
1.19971
0.608667
1.13148e-11
1.16297
0.596411
1.07286e-11
1.12612
0.584764
1.0629e-11
1.08921
0.573703
1.00947e-11
1.05228
0.563204
9.96409e-12
1.01535
0.553243
9.48164e-12
0.978453
0.543799
9.33505e-12
0.941605
0.534852
8.90147e-12
0.904826
0.52638
8.74855e-12
0.86813
0.518367
8.36073e-12
0.831527
0.510793
8.2085e-12
0.795028
0.503643
7.86279e-12
0.758638
0.496901
7.71694e-12
0.722362
0.490552
7.41115e-12
0.686203
0.484582
7.27608e-12
0.650162
0.478979
7.00779e-12
0.614239
0.473729
6.88695e-12
0.578432
0.468823
6.654e-12
0.54274
0.464249
6.55039e-12
0.507159
0.459997
6.35123e-12
0.471684
0.456059
6.2674e-12
0.436311
0.452427
6.10098e-12
0.401034
0.449092
6.03909e-12
0.365848
0.446047
5.90535e-12
0.330745
0.443288
5.8694e-12
0.295719
0.440806
5.77351e-12
0.260762
0.438599
5.77572e-12
0.225867
0.436661
5.74091e-12
0.191026
0.434988
5.81027e-12
0.156231
0.433578
5.8713e-12
0.121474
0.432427
6.01489e-12
0.0867463
0.431533
6.17278e-12
0.0520395
0.430896
6.70464e-12
0.0173453
0.430514
8.11218e-12
-0.0173447
0.430386
1.18405e-11
-0.0520389
0.430514
5.79023e-12
-0.0867457
0.430896
1.00584e-11
-0.121474
0.431533
3.34726e-12
0.432427
4.9481e-12
0.544192
1.50837
-1.67292e-10
0.63709
1.49672
-9.33874e-11
0.727024
1.48313
9.2145e-12
0.813587
1.46767
1.13385e-10
0.896394
1.45046
8.43527e-11
0.975087
1.4316
4.42883e-11
1.04934
1.4112
1.19305e-11
1.11887
1.3894
1.19521e-12
1.18343
1.36634
-8.70524e-12
1.24284
1.34217
-7.73006e-12
1.29695
1.31704
-1.23475e-11
1.34567
1.29111
-8.98128e-12
1.38898
1.26454
-1.24892e-11
1.4269
1.23749
-8.80506e-12
1.45951
1.2101
-1.20486e-11
1.48693
1.18253
-8.64004e-12
1.50932
1.15491
-1.1817e-11
1.52688
1.12738
-8.93447e-12
1.53984
1.10004
-1.20921e-11
1.54843
1.07301
-9.84081e-12
1.55293
1.04637
-1.29513e-11
1.55358
1.02021
-1.13145e-11
1.55068