/*--------------------------------*- C++ -*----------------------------------*\
| =========                 |                                                 |
| \\      /  F ield         | OpenFOAM: The Open Source CFD Toolbox           |
|  \\    /   O peration     | Version:  2306                                  |
|   \\  /    A nd           | Website:  www.openfoam.com                      |
|    \\/     M anipulation  |                                                 |
\*---------------------------------------------------------------------------*/
FoamFile
{
    version     2.0;
    format      ascii;
    arch        "LSB;label=32;scalar=64";
    class       volVectorField;
    location    "87.5";
    object      U;
}
// * * * * * * * * * * * * * * * * * * * * * * * * * * * * * * * * * * * * * //

dimensions      [0 1 -1 0 0 0 0];

internalField   nonuniform List<vector> 
14400
(
(0.0376566 0.496529 2.41363e-10)
(0.0458042 0.49695 1.21996e-10)
(0.0542158 0.497633 -2.21215e-11)
(0.0628894 0.498642 -1.11126e-10)
(0.0718275 0.499907 -2.68799e-10)
(0.0810441 0.500895 -3.6492e-10)
(0.090656 0.499705 -6.11685e-10)
(0.102234 0.490386 -4.87166e-10)
(0.123973 0.454498 -1.13693e-09)
(0.156072 0.3406 -1.86657e-10)
(0.218009 0.014312 -5.02701e-10)
(0.0811279 -0.0251812 -2.39408e-10)
(0.077985 0.00588146 -1.5611e-10)
(0.0689464 0.0111749 -1.08566e-10)
(0.0569347 0.00945159 -6.86461e-11)
(0.0473528 0.00515466 -4.08403e-11)
(0.0396111 0.00198563 -1.96486e-11)
(0.0338861 0.000406545 -1.16442e-11)
(0.0299441 -0.000463469 -3.37495e-12)
(0.0272607 -0.000950747 -3.65297e-13)
(0.0254318 -0.00117539 2.41924e-12)
(0.0241746 -0.0012316 1.84601e-12)
(0.0232845 -0.00118915 9.64585e-13)
(0.0226169 -0.00109423 -9.22585e-13)
(0.0220744 -0.000976146 -2.61282e-12)
(0.0215948 -0.000852868 -3.93773e-12)
(0.0211402 -0.000734693 -4.91138e-12)
(0.0206893 -0.000626892 -5.22348e-12)
(0.0202315 -0.00053157 -5.37427e-12)
(0.0197625 -0.000448963 -5.04805e-12)
(0.0192817 -0.00037829 -4.79695e-12)
(0.0187905 -0.000318297 -4.2827e-12)
(0.018291 -0.000267585 -3.97326e-12)
(0.0177859 -0.000224789 -3.50549e-12)
(0.0172774 -0.000188666 -3.27169e-12)
(0.0167677 -0.000158128 -2.90373e-12)
(0.0162585 -0.00013225 -2.75258e-12)
(0.0157515 -0.000110255 -2.46437e-12)
(0.0152477 -9.14981e-05 -2.36684e-12)
(0.0147482 -7.54449e-05 -2.13063e-12)
(0.0142536 -6.16564e-05 -2.0628e-12)
(0.0137644 -4.97707e-05 -1.8621e-12)
(0.0132811 -3.94892e-05 -1.81178e-12)
(0.0128039 -3.05657e-05 -1.63949e-12)
(0.0123328 -2.27962e-05 -1.60161e-12)
(0.011868 -1.60113e-05 -1.45458e-12)
(0.0114095 -1.00697e-05 -1.42663e-12)
(0.0109572 -4.85322e-06 -1.30267e-12)
(0.0105109 -2.62599e-07 -1.28269e-12)
(0.0100705 3.78591e-06 -1.17961e-12)
(0.00963585 7.3632e-06 -1.16573e-12)
(0.00920678 1.05295e-05 -1.08137e-12)
(0.00878306 1.33363e-05 -1.07191e-12)
(0.00836448 1.58276e-05 -1.00439e-12)
(0.00795081 1.8041e-05 -9.98019e-13)
(0.00754183 2.00092e-05 -9.45863e-13)
(0.00713731 2.17602e-05 -9.41584e-13)
(0.00673701 2.33182e-05 -9.0372e-13)
(0.00634071 2.4704e-05 -9.00883e-13)
(0.00594816 2.59359e-05 -8.76619e-13)
(0.00555914 2.70293e-05 -8.74808e-13)
(0.00517342 2.79976e-05 -8.63752e-13)
(0.00479078 2.8852e-05 -8.62725e-13)
(0.00441099 2.9602e-05 -8.64714e-13)
(0.00403384 3.02554e-05 -8.64366e-13)
(0.0036591 3.08183e-05 -8.79524e-13)
(0.00328658 3.12953e-05 -8.80168e-13)
(0.00291606 3.16897e-05 -9.09098e-13)
(0.00254734 3.20037e-05 -9.1242e-13)
(0.00218023 3.22385e-05 -9.56482e-13)
(0.00181452 3.23956e-05 -9.66826e-13)
(0.00145002 3.24771e-05 -1.02829e-12)
(0.00108654 3.24884e-05 -1.04585e-12)
(0.000723859 3.24409e-05 -1.12508e-12)
(0.000361778 3.236e-05 -1.14456e-12)
(-3.59412e-09 3.23158e-05 -1.20591e-12)
(-0.000361785 3.23599e-05 -1.35141e-12)
(-0.000723866 3.24406e-05 -3.84507e-13)
(-0.00108654 3.2488e-05 -3.44722e-12)
(-0.00145003 3.24766e-05 -2.52391e-13)
(0.0780252 0.460063 2.65529e-10)
(0.0956583 0.457811 1.19977e-10)
(0.114569 0.455074 -3.21197e-11)
(0.135153 0.45173 -1.42406e-10)
(0.157911 0.447493 -3.20253e-10)
(0.183441 0.441711 -4.79341e-10)
(0.212335 0.432943 -7.38558e-10)
(0.245038 0.418217 -8.8086e-10)
(0.281217 0.391751 -9.92191e-10)
(0.312702 0.34379 -1.00764e-09)
(0.309605 0.272148 -8.06708e-10)
(0.264655 0.202896 -5.30414e-10)
(0.223574 0.118511 -2.98288e-10)
(0.189756 0.0721586 -1.54736e-10)
(0.164562 0.0533641 -9.42566e-11)
(0.146207 0.0429419 -4.89964e-11)
(0.13157 0.0339731 -1.92938e-11)
(0.119285 0.0256677 -1.10898e-11)
(0.109126 0.0187563 3.80025e-13)
(0.100912 0.0135522 2.22363e-12)
(0.094238 0.00984331 5.1429e-12)
(0.088705 0.00730047 3.46823e-12)
(0.08403 0.00561933 2.04824e-12)
(0.0800007 0.00454839 -4.87156e-13)
(0.0764543 0.00389255 -2.60244e-12)
(0.0732697 0.00350775 -4.22272e-12)
(0.0703594 0.00329234 -5.31407e-12)
(0.0676613 0.00317752 -5.7226e-12)
(0.0651315 0.00311868 -5.7956e-12)
(0.0627389 0.00308805 -5.49006e-12)
(0.0604611 0.00306915 -5.10992e-12)
(0.0582821 0.00305282 -4.60379e-12)
(0.0561899 0.00303434 -4.18773e-12)
(0.0541753 0.00301168 -3.73276e-12)
(0.052231 0.00298433 -3.42913e-12)
(0.0503512 0.00295255 -3.07586e-12)
(0.0485309 0.00291697 -2.88251e-12)
(0.046766 0.00287836 -2.60538e-12)
(0.0450527 0.00283752 -2.48207e-12)
(0.0433878 0.00279515 -2.25096e-12)
(0.0417681 0.00275189 -2.16677e-12)
(0.0401911 0.00270827 -1.96559e-12)
(0.0386542 0.00266473 -1.90488e-12)
(0.037155 0.00262165 -1.72801e-12)
(0.0356913 0.0025793 -1.68402e-12)
(0.0342611 0.00253791 -1.52983e-12)
(0.0328625 0.00249767 -1.49911e-12)
(0.0314935 0.0024587 -1.36648e-12)
(0.0301526 0.0024211 -1.34637e-12)
(0.028838 0.00238495 -1.2338e-12)
(0.0275483 0.00235028 -1.22196e-12)
(0.0262819 0.00231712 -1.12763e-12)
(0.0250374 0.0022855 -1.12207e-12)
(0.0238135 0.00225541 -1.04421e-12)
(0.022609 0.00222684 -1.04348e-12)
(0.0214227 0.00219979 -9.80577e-13)
(0.0202533 0.00217424 -9.83737e-13)
(0.0190998 0.00215016 -9.34545e-13)
(0.0179611 0.00212753 -9.41117e-13)
(0.0168362 0.00210633 -9.0469e-13)
(0.0157242 0.00208652 -9.14525e-13)
(0.0146239 0.00206809 -8.90141e-13)
(0.0135347 0.002051 -9.03329e-13)
(0.0124555 0.00203522 -8.90452e-13)
(0.0113855 0.00202073 -9.07207e-13)
(0.010324 0.0020075 -9.05486e-13)
(0.00926996 0.0019955 -9.26335e-13)
(0.00822277 0.0019847 -9.35762e-13)
(0.00718162 0.00197508 -9.62118e-13)
(0.00614575 0.00196663 -9.83372e-13)
(0.00511442 0.00195932 -1.01826e-12)
(0.00408689 0.00195318 -1.05291e-12)
(0.00306243 0.00194822 -1.09618e-12)
(0.00204031 0.00194449 -1.14191e-12)
(0.00101983 0.00194211 -1.19286e-12)
(1.39978e-08 0.00194127 -1.22755e-12)
(-0.0010198 0.0019421 -1.36074e-12)
(-0.00204028 0.00194449 -7.50454e-13)
(-0.0030624 0.00194822 -2.65814e-12)
(-0.00408686 0.00195318 -1.22353e-12)
(0.0797863 0.408766 7.78844e-11)
(0.0964486 0.404101 2.27475e-11)
(0.113525 0.398206 -6.13046e-11)
(0.131111 0.390781 -1.04324e-10)
(0.149298 0.381403 -1.91731e-10)
(0.168137 0.369482 -2.34335e-10)
(0.187548 0.354233 -3.3395e-10)
(0.207131 0.334745 -3.50902e-10)
(0.225697 0.310294 -3.93492e-10)
(0.240312 0.280904 -3.49615e-10)
(0.246608 0.247883 -2.7952e-10)
(0.243853 0.214069 -1.95348e-10)
(0.234581 0.17834 -1.27957e-10)
(0.220514 0.144424 -7.51612e-11)
(0.205132 0.115207 -4.05085e-11)
(0.190941 0.0915884 -2.30841e-11)
(0.178441 0.0730719 -6.24588e-12)
(0.16731 0.0584966 -3.76812e-12)
(0.157262 0.0469026 3.08387e-12)
(0.148221 0.0377868 1.79015e-12)
(0.1401 0.0307875 2.51721e-12)
(0.132771 0.0255306 -2.06013e-13)
(0.126124 0.0216464 -2.06971e-12)
(0.120067 0.018803 -4.40001e-12)
(0.114519 0.0167237 -6.06059e-12)
(0.109408 0.0151911 -7.14275e-12)
(0.104673 0.0140417 -7.64835e-12)
(0.100263 0.0131575 -7.65993e-12)
(0.0961348 0.0124554 -7.31002e-12)
(0.0922528 0.0118789 -6.81947e-12)
(0.0885872 0.0113898 -6.18069e-12)
(0.0851131 0.0109629 -5.62219e-12)
(0.0818096 0.0105816 -5.03854e-12)
(0.078659 0.0102349 -4.58578e-12)
(0.0756461 0.00991571 -4.15329e-12)
(0.072758 0.00961905 -3.81716e-12)
(0.0699836 0.0093416 -3.51219e-12)
(0.0673129 0.00908103 -3.25405e-12)
(0.0647374 0.00883561 -3.03113e-12)
(0.0622496 0.00860404 -2.81852e-12)
(0.0598426 0.0083853 -2.64617e-12)
(0.0575104 0.00817856 -2.46301e-12)
(0.0552475 0.00798308 -2.32526e-12)
(0.053049 0.00779825 -2.16583e-12)
(0.0509104 0.00762351 -2.05508e-12)
(0.0488275 0.00745835 -1.91742e-12)
(0.0467967 0.00730228 -1.82905e-12)
(0.0448144 0.00715489 -1.71172e-12)
(0.0428774 0.00701574 -1.64201e-12)
(0.0409827 0.00688447 -1.54328e-12)
(0.0391276 0.00676071 -1.48894e-12)
(0.0373094 0.00664412 -1.40691e-12)
(0.0355258 0.00653438 -1.36516e-12)
(0.0337745 0.0064312 -1.29806e-12)
(0.0320533 0.0063343 -1.26676e-12)
(0.0303603 0.00624342 -1.21305e-12)
(0.0286934 0.00615831 -1.19068e-12)
(0.027051 0.00607875 -1.14913e-12)
(0.0254312 0.00600452 -1.13473e-12)
(0.0238325 0.00593543 -1.10438e-12)
(0.0222533 0.0058713 -1.09741e-12)
(0.0206921 0.00581195 -1.07752e-12)
(0.0191475 0.00575722 -1.07773e-12)
(0.017618 0.00570698 -1.06775e-12)
(0.0161025 0.00566109 -1.07518e-12)
(0.0145994 0.00561942 -1.07475e-12)
(0.0131078 0.00558187 -1.08986e-12)
(0.0116262 0.00554833 -1.09896e-12)
(0.0101536 0.00551874 -1.12354e-12)
(0.00868878 0.00549302 -1.14269e-12)
(0.00723058 0.00547112 -1.18076e-12)
(0.00577789 0.00545303 -1.21163e-12)
(0.00432959 0.00543876 -1.26161e-12)
(0.00288459 0.00542838 -1.3053e-12)
(0.0014419 0.00542199 -1.35905e-12)
(2.3186e-08 0.00541981 -1.38182e-12)
(-0.00144185 0.00542199 -1.60644e-12)
(-0.00288455 0.00542837 -5.15304e-13)
(-0.00432954 0.00543876 -3.89738e-12)
(-0.00577784 0.00545302 -3.87131e-13)
(0.0719407 0.367458 1.43152e-11)
(0.0864995 0.362571 4.91844e-13)
(0.101132 0.356487 -2.56951e-11)
(0.115815 0.348997 -3.42999e-11)
(0.130489 0.339843 -6.05981e-11)
(0.145032 0.328728 -6.74515e-11)
(0.159219 0.315345 -9.1373e-11)
(0.172678 0.299445 -9.08366e-11)
(0.184855 0.280937 -9.68521e-11)
(0.195051 0.259934 -8.41138e-11)
(0.202593 0.236746 -7.09373e-11)
(0.207041 0.211993 -5.19098e-11)
(0.208141 0.18644 -3.30545e-11)
(0.206043 0.161335 -2.02936e-11)
(0.201485 0.13775 -6.58765e-12)
(0.195338 0.116445 -2.02776e-12)
(0.188292 0.0979499 5.78726e-12)
(0.180826 0.0824515 5.62759e-12)
(0.17324 0.0697583 8.16971e-12)
(0.165698 0.0594978 5.88745e-12)
(0.158319 0.0512991 4.82434e-12)
(0.151189 0.0448083 2.09232e-12)
(0.144369 0.0396937 3.39262e-15)
(0.137894 0.0356591 -1.97281e-12)
(0.131777 0.032455 -3.34124e-12)
(0.126015 0.02988 -4.21219e-12)
(0.120594 0.027778 -4.5196e-12)
(0.115491 0.0260312 -4.59702e-12)
(0.110684 0.0245527 -4.26022e-12)
(0.106146 0.0232792 -4.01203e-12)
(0.101854 0.0221649 -3.50159e-12)
(0.0977854 0.0211767 -3.23117e-12)
(0.0939189 0.0202905 -2.79244e-12)
(0.0902358 0.0194885 -2.60078e-12)
(0.0867193 0.0187573 -2.28626e-12)
(0.0833544 0.0180867 -2.16464e-12)
(0.0801277 0.0174689 -1.94566e-12)
(0.0770274 0.0168974 -1.86017e-12)
(0.0740428 0.0163671 -1.6992e-12)
(0.0711645 0.0158739 -1.62678e-12)
(0.0683842 0.0154142 -1.50037e-12)
(0.0656942 0.014985 -1.43241e-12)
(0.0630876 0.0145838 -1.32974e-12)
(0.0605582 0.0142084 -1.26547e-12)
(0.0581005 0.0138567 -1.18184e-12)
(0.0557094 0.0135271 -1.12278e-12)
(0.0533801 0.0132181 -1.05543e-12)
(0.0511083 0.0129282 -1.00288e-12)
(0.0488902 0.0126563 -9.4942e-13)
(0.046722 0.0124013 -9.03967e-13)
(0.0446003 0.012162 -8.62154e-13)
(0.0425221 0.0119377 -8.23869e-13)
(0.0404844 0.0117274 -7.91809e-13)
(0.0384845 0.0115305 -7.60558e-13)
(0.0365198 0.0113463 -7.36782e-13)
(0.0345878 0.011174 -7.12365e-13)
(0.0326864 0.0110131 -6.95865e-13)
(0.0308134 0.0108632 -6.78151e-13)
(0.0289667 0.0107237 -6.68329e-13)
(0.0271444 0.0105941 -6.57196e-13)
(0.0253447 0.0104741 -6.53738e-13)
(0.0235658 0.0103633 -6.49081e-13)
(0.021806 0.0102613 -6.51927e-13)
(0.0200638 0.0101679 -6.53696e-13)
(0.0183376 0.0100827 -6.62958e-13)
(0.0166258 0.0100056 -6.71074e-13)
(0.014927 0.00993628 -6.86943e-13)
(0.0132399 0.00987456 -7.01363e-13)
(0.0115629 0.00982028 -7.24181e-13)
(0.00989485 0.00977331 -7.44812e-13)
(0.00823433 0.00973355 -7.74529e-13)
(0.00658006 0.00970093 -8.00787e-13)
(0.00493075 0.00967544 -8.33877e-13)
(0.00328515 0.00965709 -8.59627e-13)
(0.00164216 0.00964598 -8.94956e-13)
(2.5573e-08 0.00964224 -9.0877e-13)
(-0.00164211 0.00964598 -9.91743e-13)
(-0.0032851 0.00965709 -6.49166e-13)
(-0.0049307 0.00967544 -1.68668e-12)
(-0.00658001 0.00970093 -1.3016e-12)
(0.0657227 0.331561 -3.18325e-12)
(0.0787789 0.326739 3.63249e-12)
(0.0917532 0.320825 -8.24363e-12)
(0.104589 0.313692 -1.02697e-11)
(0.117197 0.305196 -1.90231e-11)
(0.129449 0.295193 -2.10068e-11)
(0.141166 0.283559 -2.88784e-11)
(0.152117 0.270222 -2.89236e-11)
(0.16203 0.255198 -3.21169e-11)
(0.170617 0.238604 -2.9182e-11)
(0.177607 0.220676 -2.63118e-11)
(0.182769 0.20177 -2.18798e-11)
(0.18594 0.18235 -1.57588e-11)
(0.187081 0.163031 -1.24393e-11)
(0.186319 0.14447 -6.74131e-12)
(0.183893 0.12727 -5.53847e-12)
(0.180119 0.11188 -2.23417e-12)
(0.175339 0.0984946 -2.73069e-12)
(0.169875 0.0870741 -2.22928e-12)
(0.163992 0.0774417 -3.57572e-12)
(0.157897 0.0693731 -4.67669e-12)
(0.151753 0.0626374 -5.95426e-12)
(0.145679 0.0570142 -7.16001e-12)
(0.13976 0.0523034 -7.80233e-12)
(0.134048 0.0483317 -8.28867e-12)
(0.128573 0.0449546 -8.24859e-12)
(0.123348 0.042055 -8.01975e-12)
(0.118371 0.0395401 -7.57613e-12)
(0.113636 0.0373373 -6.99533e-12)
(0.109131 0.0353902 -6.45173e-12)
(0.104841 0.0336551 -5.83555e-12)
(0.100752 0.0320976 -5.36091e-12)
(0.096849 0.0306907 -4.85201e-12)
(0.0931169 0.0294132 -4.4854e-12)
(0.0895427 0.0282475 -4.10046e-12)
(0.0861137 0.0271797 -3.81919e-12)
(0.0828185 0.0261981 -3.52815e-12)
(0.0796466 0.0252931 -3.30084e-12)
(0.0765885 0.0244563 -3.07259e-12)
(0.0736356 0.023681 -2.87894e-12)
(0.0707799 0.0229612 -2.69408e-12)
(0.0680142 0.0222918 -2.52501e-12)
(0.0653321 0.0216683 -2.37335e-12)
(0.0627274 0.0210869 -2.22551e-12)
(0.0601948 0.0205441 -2.10128e-12)
(0.0577292 0.020037 -1.97318e-12)
(0.055326 0.0195629 -1.87217e-12)
(0.052981 0.0191194 -1.76241e-12)
(0.0506902 0.0187044 -1.68102e-12)
(0.04845 0.018316 -1.58808e-12)
(0.0462569 0.0179525 -1.52309e-12)
(0.0441079 0.0176123 -1.44534e-12)
(0.0419999 0.017294 -1.39412e-12)
(0.0399303 0.0169964 -1.33016e-12)
(0.0378964 0.0167184 -1.29068e-12)
(0.0358959 0.0164588 -1.23923e-12)
(0.0339263 0.0162168 -1.21e-12)
(0.0319856 0.0159915 -1.17011e-12)
(0.0300716 0.015782 -1.15016e-12)
(0.0281825 0.0155877 -1.12104e-12)
(0.0263163 0.0154079 -1.10978e-12)
(0.0244713 0.0152421 -1.09083e-12)
(0.0226457 0.0150897 -1.08799e-12)
(0.0208379 0.0149502 -1.07881e-12)
(0.0190464 0.0148232 -1.08442e-12)
(0.0172695 0.0147084 -1.08484e-12)
(0.0155059 0.0146052 -1.09941e-12)
(0.013754 0.0145135 -1.10954e-12)
(0.0120125 0.0144331 -1.13467e-12)
(0.01028 0.0143636 -1.15494e-12)
(0.00855515 0.0143049 -1.19374e-12)
(0.00683662 0.0142569 -1.22503e-12)
(0.00512311 0.0142196 -1.27346e-12)
(0.00341337 0.0141928 -1.31613e-12)
(0.00170627 0.0141767 -1.3606e-12)
(2.55756e-08 0.0141713 -1.37978e-12)
(-0.00170622 0.0141767 -1.61987e-12)
(-0.00341332 0.0141928 -3.87301e-13)
(-0.00512306 0.0142196 -4.17162e-12)
(-0.00683657 0.0142569 -4.7953e-14)
(0.0596611 0.299055 2.94948e-11)
(0.0713495 0.294513 2.27247e-11)
(0.0828724 0.289014 1.11084e-11)
(0.0941665 0.282489 8.9756e-12)
(0.105148 0.274864 4.81759e-12)
(0.115709 0.266075 3.81586e-12)
(0.125715 0.256081 5.65109e-13)
(0.135012 0.244884 4.49667e-13)
(0.143425 0.232537 -1.12826e-12)
(0.150779 0.219165 -5.14724e-13)
(0.156903 0.204964 2.09123e-13)
(0.161655 0.190205 1.16225e-12)
(0.164928 0.175228 3.22684e-12)
(0.166679 0.160429 3.73121e-12)
(0.166948 0.146202 5.54036e-12)
(0.165857 0.13288 5.18126e-12)
(0.163602 0.120686 5.71199e-12)
(0.160415 0.109722 4.60577e-12)
(0.156532 0.0999907 3.85197e-12)
(0.152162 0.0914267 2.46879e-12)
(0.147483 0.0839306 1.1871e-12)
(0.142637 0.077386 4.12869e-14)
(0.137732 0.0716723 -9.50057e-13)
(0.13285 0.0666741 -1.62155e-12)
(0.128048 0.0622863 -2.03129e-12)
(0.123364 0.058417 -2.26382e-12)
(0.118821 0.0549877 -2.20112e-12)
(0.114433 0.0519326 -2.18849e-12)
(0.110202 0.0491969 -1.90908e-12)
(0.10613 0.0467357 -1.82958e-12)
(0.102213 0.0445115 -1.52586e-12)
(0.0984441 0.0424934 -1.46845e-12)
(0.094817 0.0406555 -1.22072e-12)
(0.091324 0.038976 -1.20049e-12)
(0.0879571 0.0374366 -1.01619e-12)
(0.0847088 0.0360218 -1.01727e-12)
(0.0815716 0.0347181 -8.79129e-13)
(0.0785382 0.0335142 -8.84453e-13)
(0.0756021 0.0324001 -7.75963e-13)
(0.0727567 0.0313672 -7.76828e-13)
(0.0699963 0.030408 -6.88519e-13)
(0.0673152 0.0295159 -6.83313e-13)
(0.0647082 0.0286853 -6.10753e-13)
(0.0621707 0.0279109 -6.01014e-13)
(0.059698 0.0271884 -5.41892e-13)
(0.0572861 0.0265136 -5.298e-13)
(0.054931 0.025883 -4.8237e-13)
(0.052629 0.0252934 -4.69735e-13)
(0.0503769 0.024742 -4.32357e-13)
(0.0481714 0.0242262 -4.20451e-13)
(0.0460096 0.0237436 -3.91604e-13)
(0.0438886 0.0232923 -3.81354e-13)
(0.0418059 0.0228702 -3.598e-13)
(0.0397589 0.0224757 -3.5186e-13)
(0.0377454 0.0221073 -3.36658e-13)
(0.035763 0.0217635 -3.31568e-13)
(0.0338097 0.021443 -3.22133e-13)
(0.0318836 0.0211447 -3.20344e-13)
(0.0299827 0.0208676 -3.16339e-13)
(0.0281051 0.0206106 -3.18214e-13)
(0.0262493 0.0203729 -3.19489e-13)
(0.0244134 0.0201538 -3.25331e-13)
(0.022596 0.0199524 -3.3193e-13)
(0.0207954 0.0197682 -3.41947e-13)
(0.0190102 0.0196006 -3.53989e-13)
(0.0172389 0.019449 -3.68388e-13)
(0.0154801 0.0193131 -3.8599e-13)
(0.0137326 0.0191923 -4.0483e-13)
(0.0119948 0.0190864 -4.27701e-13)
(0.0102657 0.018995 -4.5064e-13)
(0.00854375 0.0189179 -4.77082e-13)
(0.00682786 0.018855 -5.02703e-13)
(0.00511674 0.0188062 -5.27358e-13)
(0.00340921 0.0187712 -5.48904e-13)
(0.00170421 0.0187503 -5.69935e-13)
(2.39025e-08 0.0187432 -5.81505e-13)
(-0.00170417 0.0187503 -6.25289e-13)
(-0.00340916 0.0187712 -4.34684e-13)
(-0.00511669 0.0188062 -1.00212e-12)
(-0.00682781 0.018855 -1.02998e-12)
(0.0531015 0.269338 1.32457e-11)
(0.0633777 0.265238 1.92778e-11)
(0.0734393 0.260332 7.42345e-12)
(0.0832244 0.25459 6.43991e-12)
(0.0926574 0.247988 3.67146e-12)
(0.101648 0.240512 2.79801e-12)
(0.110094 0.232171 8.44439e-13)
(0.117879 0.223 3.18654e-13)
(0.124886 0.213072 -7.91473e-13)
(0.130996 0.202502 -1.03756e-12)
(0.136104 0.191445 -1.19216e-12)
(0.140127 0.180094 -1.25634e-12)
(0.143015 0.168665 -8.74235e-13)
(0.144764 0.157382 -9.64191e-13)
(0.145418 0.146453 -7.06608e-13)
(0.145067 0.136052 -1.0247e-12)
(0.14384 0.126306 -1.29278e-12)
(0.141883 0.117292 -1.7887e-12)
(0.139343 0.109037 -2.43759e-12)
(0.136358 0.101532 -2.91329e-12)
(0.13305 0.0947407 -3.60001e-12)
(0.129521 0.0886116 -3.89443e-12)
(0.125854 0.0830864 -4.2979e-12)
(0.122116 0.0781046 -4.34489e-12)
(0.118357 0.0736076 -4.39076e-12)
(0.114615 0.0695413 -4.24753e-12)
(0.110917 0.0658568 -4.04492e-12)
(0.107283 0.0625104 -3.81916e-12)
(0.103725 0.059464 -3.51798e-12)
(0.100251 0.0566841 -3.29411e-12)
(0.0968656 0.0541415 -2.99642e-12)
(0.0935701 0.0518108 -2.81031e-12)
(0.0903647 0.0496698 -2.5565e-12)
(0.0872481 0.047699 -2.40912e-12)
(0.0842182 0.0458815 -2.20237e-12)
(0.0812722 0.0442021 -2.08216e-12)
(0.0784069 0.0426478 -1.91339e-12)
(0.0756188 0.041207 -1.80992e-12)
(0.0729046 0.0398694 -1.67039e-12)
(0.0702605 0.0386259 -1.57815e-12)
(0.0676831 0.0374684 -1.46222e-12)
(0.065169 0.0363899 -1.37934e-12)
(0.0627149 0.0353838 -1.28356e-12)
(0.0603174 0.0344446 -1.20961e-12)
(0.0579736 0.033567 -1.13132e-12)
(0.0556804 0.0327466 -1.06626e-12)
(0.053435 0.0319793 -1.00302e-12)
(0.0512347 0.0312612 -9.46579e-13)
(0.049077 0.0305892 -8.96124e-13)
(0.0469593 0.0299601 -8.47899e-13)
(0.0448793 0.0293713 -8.08234e-13)
(0.0428349 0.0288203 -7.67747e-13)
(0.0408238 0.0283048 -7.37236e-13)
(0.0388442 0.0278228 -7.04079e-13)
(0.0368939 0.0273725 -6.81464e-13)
(0.0349713 0.0269522 -6.5526e-13)
(0.0330744 0.0265603 -6.39661e-13)
(0.0312017 0.0261955 -6.20129e-13)
(0.0293515 0.0258564 -6.10936e-13)
(0.0275223 0.025542 -5.97804e-13)
(0.0257124 0.0252512 -5.94593e-13)
(0.0239206 0.024983 -5.87603e-13)
(0.0221453 0.0247365 -5.90154e-13)
(0.0203852 0.0245111 -5.8912e-13)
(0.018639 0.024306 -5.97418e-13)
(0.0169054 0.0241205 -6.02225e-13)
(0.0151832 0.0239541 -6.16526e-13)
(0.0134711 0.0238064 -6.27163e-13)
(0.011768 0.0236769 -6.48442e-13)
(0.0100726 0.0235653 -6.64935e-13)
(0.00838383 0.0234712 -6.95178e-13)
(0.00670055 0.0233944 -7.17905e-13)
(0.00502161 0.0233348 -7.53639e-13)
(0.00334596 0.0232922 -7.83684e-13)
(0.00167263 0.0232667 -8.13054e-13)
(2.22394e-08 0.0232582 -8.27307e-13)
(-0.00167259 0.0232667 -1.01146e-12)
(-0.00334591 0.0232922 -6.95218e-14)
(-0.00502157 0.0233348 -2.97072e-12)
(-0.0067005 0.0233944 3.41056e-13)
(0.046014 0.243509 4.41335e-11)
(0.0548213 0.239969 3.86217e-11)
(0.063395 0.235772 2.15895e-11)
(0.0716796 0.230916 1.94998e-11)
(0.0796124 0.225402 1.69784e-11)
(0.0871235 0.219244 1.60772e-11)
(0.0941373 0.212467 1.46247e-11)
(0.100575 0.205115 1.40462e-11)
(0.10636 0.197254 1.29318e-11)
(0.111421 0.188971 1.2339e-11)
(0.1157 0.180373 1.14606e-11)
(0.119155 0.171583 1.08133e-11)
(0.12177 0.162733 1.00531e-11)
(0.123555 0.153954 9.31911e-12)
(0.124545 0.14537 8.50618e-12)
(0.124801 0.137087 7.6852e-12)
(0.124399 0.129185 6.76284e-12)
(0.123427 0.121721 5.92857e-12)
(0.121976 0.114725 5.00828e-12)
(0.120132 0.108208 4.26961e-12)
(0.117975 0.102163 3.51676e-12)
(0.115577 0.0965737 2.94751e-12)
(0.112998 0.0914165 2.45762e-12)
(0.110288 0.0866634 2.06175e-12)
(0.10749 0.082285 1.83452e-12)
(0.104638 0.0782517 1.57057e-12)
(0.101758 0.0745352 1.5003e-12)
(0.0988721 0.0711085 1.30903e-12)
(0.0959953 0.0679466 1.32039e-12)
(0.0931407 0.0650262 1.15588e-12)
(0.0903176 0.0623263 1.19192e-12)
(0.0875326 0.0598276 1.03912e-12)
(0.0847909 0.0575126 1.07596e-12)
(0.0820955 0.0553653 9.33892e-13)
(0.0794487 0.0533714 9.65219e-13)
(0.0768515 0.0515179 8.38057e-13)
(0.0743044 0.0497932 8.64079e-13)
(0.071807 0.0481866 7.54484e-13)
(0.0693588 0.0466887 7.76025e-13)
(0.0669587 0.0452907 6.83965e-13)
(0.0646056 0.043985 7.01225e-13)
(0.062298 0.0427645 6.24789e-13)
(0.0600343 0.0416229 6.37764e-13)
(0.057813 0.0405545 5.74601e-13)
(0.0556324 0.0395539 5.83478e-13)
(0.0534907 0.0386167 5.31134e-13)
(0.0513863 0.0377384 5.36282e-13)
(0.0493174 0.0369151 4.92737e-13)
(0.0472825 0.0361435 4.94713e-13)
(0.0452798 0.0354202 4.58101e-13)
(0.0433077 0.0347423 4.57413e-13)
(0.0413647 0.0341072 4.26145e-13)
(0.0394491 0.0335125 4.23264e-13)
(0.0375597 0.0329559 3.96401e-13)
(0.0356947 0.0324354 3.91476e-13)
(0.0338529 0.0319491 3.674e-13)
(0.0320329 0.0314955 3.60334e-13)
(0.0302334 0.0310729 3.38101e-13)
(0.0284529 0.0306799 3.28947e-13)
(0.0266904 0.0303153 3.07913e-13)
(0.0249445 0.0299779 2.96817e-13)
(0.0232141 0.0296666 2.76559e-13)
(0.0214979 0.0293805 2.63472e-13)
(0.019795 0.0291187 2.43522e-13)
(0.018104 0.0288804 2.28324e-13)
(0.0164241 0.0286649 2.08412e-13)
(0.014754 0.0284716 1.91234e-13)
(0.0130927 0.0283 1.71444e-13)
(0.0114392 0.0281495 1.53485e-13)
(0.00979258 0.0280198 1.3495e-13)
(0.00815171 0.0279105 1.18478e-13)
(0.00651564 0.0278213 1.01574e-13)
(0.00488339 0.0277521 8.93474e-14)
(0.00325403 0.0277027 7.91974e-14)
(0.00162672 0.0276731 7.07078e-14)
(1.9983e-08 0.0276633 6.27742e-14)
(-0.00162668 0.0276731 8.92611e-14)
(-0.00325399 0.0277027 -1.18651e-13)
(-0.00488335 0.0277521 5.28528e-13)
(-0.0065156 0.0278213 -6.68326e-13)
(0.0390892 0.221727 3.4017e-11)
(0.0465143 0.218752 3.45145e-11)
(0.0537158 0.21525 1.80497e-11)
(0.0606483 0.211229 1.67111e-11)
(0.0672633 0.206703 1.45179e-11)
(0.0735101 0.201695 1.37092e-11)
(0.0793364 0.196232 1.23672e-11)
(0.084691 0.190357 1.17231e-11)
(0.0895258 0.184121 1.05015e-11)
(0.0937993 0.177586 9.79018e-12)
(0.0974792 0.170826 8.59686e-12)
(0.100545 0.16392 7.85689e-12)
(0.102992 0.156951 6.71904e-12)
(0.104829 0.150001 5.99796e-12)
(0.106079 0.143146 4.93288e-12)
(0.106779 0.136453 4.26948e-12)
(0.106976 0.129977 3.31632e-12)
(0.106723 0.12376 2.751e-12)
(0.106073 0.117829 1.9714e-12)
(0.105083 0.112203 1.53562e-12)
(0.103804 0.106889 9.76435e-13)
(0.102284 0.101887 6.76012e-13)
(0.100567 0.0971901 3.37811e-13)
(0.0986916 0.0927897 1.50082e-13)
(0.0966897 0.0886728 -9.26001e-15)
(0.0945903 0.0848252 -1.18287e-13)
(0.0924172 0.0812316 -1.59005e-13)
(0.0901907 0.0778768 -2.24435e-13)
(0.0879276 0.0747455 -2.04677e-13)
(0.0856418 0.0718228 -2.64711e-13)
(0.0833449 0.0690944 -2.23097e-13)
(0.081046 0.0665468 -2.66988e-13)
(0.0787528 0.064167 -2.14359e-13)
(0.0764713 0.061943 -2.50595e-13)
(0.0742063 0.0598638 -1.97114e-13)
(0.0719614 0.0579188 -2.2525e-13)
(0.0697396 0.0560984 -1.74631e-13)
(0.0675429 0.0543939 -1.94797e-13)
(0.0653728 0.0527968 -1.49173e-13)
(0.0632303 0.0512999 -1.62532e-13)
(0.0611159 0.049896 -1.23224e-13)
(0.05903 0.0485789 -1.31418e-13)
(0.0569725 0.0473428 -9.8773e-14)
(0.0549431 0.0461822 -1.03213e-13)
(0.0529415 0.0450924 -7.71415e-14)
(0.050967 0.0440688 -7.90118e-14)
(0.0490191 0.0431072 -5.87322e-14)
(0.0470969 0.042204 -5.91798e-14)
(0.0451996 0.0413557 -4.43793e-14)
(0.0433264 0.040559 -4.40782e-14)
(0.0414763 0.0398111 -3.38795e-14)
(0.0396484 0.0391092 -3.69403e-14)
(0.0378418 0.038451 -2.81924e-14)
(0.0360554 0.0378342 -2.32444e-14)
(0.0342883 0.0372567 -1.58015e-14)
(0.0325396 0.0367166 -1.43393e-14)
(0.0308083 0.0362121 -1.28454e-14)
(0.0290934 0.0357417 -1.5563e-14)
(0.027394 0.035304 -1.89997e-14)
(0.0257091 0.0348975 -2.32437e-14)
(0.0240378 0.034521 -2.85668e-14)
(0.0223792 0.0341735 -3.35323e-14)
(0.0207324 0.0338538 -4.07836e-14)
(0.0190964 0.0335612 -4.71098e-14)
(0.0174705 0.0332948 -5.67995e-14)
(0.0158536 0.0330538 -6.49252e-14)
(0.014245 0.0328375 -7.76704e-14)
(0.0126438 0.0326454 -8.83885e-14)
(0.0110491 0.032477 -1.06011e-13)
(0.00946017 0.0323318 -1.20285e-13)
(0.00787608 0.0322094 -1.43523e-13)
(0.00629603 0.0321096 -1.58535e-13)
(0.00471921 0.0320322 -1.83339e-13)
(0.00314481 0.0319769 -2.01637e-13)
(0.00157217 0.0319438 -2.19042e-13)
(1.8242e-08 0.0319328 -2.2886e-13)
(-0.00157214 0.0319438 -3.4214e-13)
(-0.00314478 0.0319769 1.97775e-13)
(-0.00471917 0.0320322 -1.49716e-12)
(-0.006296 0.0321096 6.80889e-13)
(0.0329103 0.203434 4.24204e-11)
(0.0391374 0.200975 3.94118e-11)
(0.0451674 0.198093 2.23768e-11)
(0.0509648 0.194802 2.08941e-11)
(0.0564934 0.191118 1.89016e-11)
(0.0617168 0.187063 1.81788e-11)
(0.0665992 0.182665 1.69654e-11)
(0.0711071 0.177957 1.64093e-11)
(0.0752102 0.172978 1.52096e-11)
(0.0788831 0.167774 1.45553e-11)
(0.0821071 0.162393 1.33087e-11)
(0.0848709 0.15689 1.26e-11)
(0.0871719 0.151317 1.13872e-11)
(0.0890162 0.145729 1.0682e-11)
(0.0904184 0.140174 9.56904e-12)
(0.0914002 0.134699 8.90821e-12)
(0.091989 0.129342 7.94569e-12)
(0.0922167 0.124135 7.35732e-12)
(0.092117 0.119102 6.57796e-12)
(0.0917248 0.114263 6.07533e-12)
(0.0910741 0.109628 5.4859e-12)
(0.0901976 0.105206 5.06583e-12)
(0.0891261 0.100998 4.64618e-12)
(0.0878874 0.0970048 4.29337e-12)
(0.0865073 0.0932222 4.00647e-12)
(0.0850083 0.0896454 3.70216e-12)
(0.0834109 0.0862674 3.50829e-12)
(0.0817327 0.0830805 3.23754e-12)
(0.0799893 0.0800764 3.10386e-12)
(0.0781942 0.0772463 2.85742e-12)
(0.0763591 0.0745813 2.76174e-12)
(0.0744939 0.0720725 2.53825e-12)
(0.0726072 0.0697111 2.46743e-12)
(0.0707062 0.0674887 2.26611e-12)
(0.0687971 0.0653971 2.21165e-12)
(0.066885 0.0634285 2.0325e-12)
(0.064974 0.0615755 1.98898e-12)
(0.0630679 0.059831 1.83129e-12)
(0.0611693 0.0581886 1.79498e-12)
(0.0592808 0.0566419 1.6573e-12)
(0.0574041 0.0551853 1.62569e-12)
(0.0555407 0.0538134 1.50618e-12)
(0.0536917 0.052521 1.47771e-12)
(0.051858 0.0513035 1.37447e-12)
(0.0500401 0.0501566 1.3483e-12)
(0.0482383 0.0490762 1.25938e-12)
(0.0464529 0.0480585 1.23505e-12)
(0.0446839 0.0471002 1.15867e-12)
(0.0429312 0.046198 1.13594e-12)
(0.0411946 0.0453489 1.07034e-12)
(0.0394738 0.0445502 1.04912e-12)
(0.0377685 0.0437992 9.92683e-13)
(0.0360782 0.0430938 9.72912e-13)
(0.0344024 0.0424316 9.24615e-13)
(0.0327408 0.0418107 9.0603e-13)
(0.0310926 0.0412292 8.64154e-13)
(0.0294573 0.0406854 8.46423e-13)
(0.0278344 0.0401777 8.09923e-13)
(0.0262232 0.0397047 7.9291e-13)
(0.0246231 0.0392651 7.61093e-13)
(0.0230335 0.0388576 7.44815e-13)
(0.0214537 0.0384811 7.1708e-13)
(0.0198831 0.0381346 7.01463e-13)
(0.018321 0.0378171 6.77364e-13)
(0.0167667 0.0375279 6.62419e-13)
(0.0152196 0.0372661 6.41704e-13)
(0.0136791 0.0370311 6.27694e-13)
(0.0121444 0.0368223 6.10409e-13)
(0.010615 0.0366392 5.98355e-13)
(0.00909015 0.0364813 5.85025e-13)
(0.00756918 0.0363482 5.77652e-13)
(0.00605146 0.0362396 5.69866e-13)
(0.00453633 0.0361554 5.68886e-13)
(0.00302315 0.0360953 5.69624e-13)
(0.00151141 0.0360593 5.71338e-13)
(1.61738e-08 0.0360473 5.66485e-13)
(-0.00151138 0.0360593 6.46079e-13)
(-0.00302312 0.0360953 1.3241e-13)
(-0.0045363 0.0361554 1.69673e-12)
(-0.00605143 0.0362396 -2.71112e-13)
(0.0276643 0.18809 4.0595e-11)
(0.0328939 0.186074 3.7086e-11)
(0.037958 0.183717 2.11707e-11)
(0.0428291 0.181033 1.97998e-11)
(0.0474802 0.178039 1.79029e-11)
(0.0518849 0.174753 1.71337e-11)
(0.0560184 0.171198 1.59058e-11)
(0.0598577 0.167401 1.52569e-11)
(0.0633828 0.163391 1.40328e-11)
(0.0665773 0.159201 1.33021e-11)
(0.0694289 0.154865 1.20489e-11)
(0.0719306 0.15042 1.12939e-11)
(0.0740802 0.145903 1.00977e-11)
(0.0758809 0.14135 9.37479e-12)
(0.077341 0.136795 8.29983e-12)
(0.0784732 0.13227 7.64257e-12)
(0.0792938 0.127805 6.72838e-12)
(0.079822 0.123423 6.15405e-12)
(0.080079 0.119145 5.41675e-12)
(0.0800869 0.114988 4.92928e-12)
(0.0798684 0.110964 4.36309e-12)
(0.0794457 0.107084 3.95581e-12)
(0.0788403 0.103353 3.5385e-12)
(0.0780727 0.0997749 3.19882e-12)
(0.0771623 0.0963518 2.90035e-12)
(0.0761267 0.0930833 2.61468e-12)
(0.0749823 0.0899675 2.40516e-12)
(0.0737441 0.0870016 2.1624e-12)
(0.0724254 0.0841818 2.01675e-12)
(0.0710382 0.0815035 1.80919e-12)
(0.0695934 0.0789619 1.70848e-12)
(0.0681005 0.0765516 1.53111e-12)
(0.0665679 0.0742672 1.46156e-12)
(0.0650031 0.072103 1.31069e-12)
(0.0634125 0.0700536 1.26244e-12)
(0.0618018 0.0681133 1.13492e-12)
(0.0601759 0.066277 1.10082e-12)
(0.058539 0.0645393 9.9366e-13)
(0.0568949 0.0628953 9.68689e-13)
(0.0552465 0.0613401 8.791e-13)
(0.0535966 0.0598692 8.59862e-13)
(0.0519475 0.0584782 7.85243e-13)
(0.0503009 0.057163 7.69524e-13)
(0.0486584 0.0559197 7.07579e-13)
(0.0470214 0.0547446 6.94064e-13)