/*--------------------------------*- C++ -*----------------------------------*\
| =========                 |                                                 |
| \\      /  F ield         | OpenFOAM: The Open Source CFD Toolbox           |
|  \\    /   O peration     | Version:  2306                                  |
|   \\  /    A nd           | Website:  www.openfoam.com                      |
|    \\/     M anipulation  |                                                 |
\*---------------------------------------------------------------------------*/
FoamFile
{
    version     2.0;
    format      ascii;
    arch        "LSB;label=32;scalar=64";
    class       volScalarField;
    location    "62.5";
    object      p;
}
// * * * * * * * * * * * * * * * * * * * * * * * * * * * * * * * * * * * * * //

dimensions      [1 -1 -2 0 0 0 0];

internalField   nonuniform List<scalar> 
14400
(
-0.00155668
-0.00180447
-0.00210384
-0.00245702
-0.00286567
-0.00333203
-0.00385454
-0.00437333
-0.00468163
-0.00507148
-0.00795245
-0.0132705
-0.0311014
-0.0461195
-0.0509174
-0.0481294
-0.0435976
-0.0396278
-0.0362551
-0.0332846
-0.030654
-0.0283319
-0.0262838
-0.024475
-0.0228744
-0.0214541
-0.0201899
-0.0190607
-0.0180486
-0.0171384
-0.0163169
-0.0155732
-0.0148976
-0.0142823
-0.0137202
-0.0132056
-0.0127332
-0.0122987
-0.0118982
-0.0115284
-0.0111863
-0.0108696
-0.0105757
-0.0103029
-0.0100493
-0.00981335
-0.00959365
-0.00938897
-0.00919818
-0.00902029
-0.00885439
-0.00869967
-0.00855541
-0.00842093
-0.00829564
-0.00817901
-0.00807053
-0.00796977
-0.00787633
-0.00778984
-0.00770997
-0.00763642
-0.00756893
-0.00750725
-0.00745118
-0.00740051
-0.00735507
-0.00731473
-0.00727934
-0.00724881
-0.00722304
-0.00720197
-0.00718555
-0.00717375
-0.00716657
-0.00716409
-0.0071664
-0.00717341
-0.00718504
-0.00720129
-0.00199357
-0.00228989
-0.00266406
-0.00313324
-0.00372338
-0.00447507
-0.00544929
-0.00672491
-0.00846133
-0.011388
-0.0168409
-0.020178
-0.0236109
-0.0282212
-0.0325016
-0.034384
-0.0336666
-0.0317889
-0.0297762
-0.0278725
-0.0260908
-0.0244389
-0.0229237
-0.021543
-0.0202892
-0.0191524
-0.0181219
-0.0171872
-0.0163384
-0.0155665
-0.0148632
-0.0142213
-0.0136343
-0.0130965
-0.0126028
-0.0121488
-0.0117305
-0.0113445
-0.0109878
-0.0106577
-0.0103517
-0.0100678
-0.00980399
-0.00955871
-0.00933042
-0.00911778
-0.00891958
-0.00873476
-0.00856234
-0.00840145
-0.0082513
-0.00811117
-0.00798044
-0.00785851
-0.00774486
-0.007639
-0.00754051
-0.00744899
-0.00736408
-0.00728546
-0.00721284
-0.00714595
-0.00708455
-0.00702843
-0.00697739
-0.00693126
-0.00688988
-0.00685313
-0.00682088
-0.00679304
-0.00676952
-0.00675025
-0.00673518
-0.00672426
-0.00671743
-0.006715
-0.00671726
-0.00672392
-0.00673468
-0.00674959
-0.00347771
-0.00377922
-0.00415099
-0.00460266
-0.0051484
-0.00581034
-0.00662487
-0.00765299
-0.00901862
-0.0110267
-0.0140075
-0.0174427
-0.0213086
-0.0245013
-0.0261995
-0.0265373
-0.0259628
-0.0249343
-0.023765
-0.022584
-0.0214305
-0.0203249
-0.0192809
-0.0183051
-0.0173989
-0.0165606
-0.0157869
-0.0150735
-0.014416
-0.0138099
-0.013251
-0.0127352
-0.0122587
-0.0118181
-0.0114104
-0.0110326
-0.0106822
-0.0103568
-0.0100545
-0.00977317
-0.00951126
-0.0092672
-0.00903959
-0.0088272
-0.00862887
-0.00844359
-0.00827044
-0.00810856
-0.00795719
-0.00781565
-0.0076833
-0.00755956
-0.00744393
-0.00733591
-0.00723508
-0.00714104
-0.00705343
-0.00697194
-0.00689625
-0.00682609
-0.00676123
-0.00670143
-0.00664649
-0.00659623
-0.00655049
-0.00650912
-0.00647198
-0.00643896
-0.00640995
-0.00638487
-0.00636365
-0.0063462
-0.00633249
-0.00632244
-0.00631597
-0.00631359
-0.00631581
-0.00632211
-0.006332
-0.00634555
-0.00785304
-0.00821189
-0.00865334
-0.00918566
-0.00981956
-0.0105683
-0.0114461
-0.012456
-0.0135616
-0.0147072
-0.0159112
-0.0171508
-0.0182898
-0.019042
-0.0192864
-0.0190968
-0.0186634
-0.0181319
-0.0175606
-0.0169689
-0.0163693
-0.0157732
-0.0151892
-0.0146236
-0.0140803
-0.0135617
-0.0130688
-0.0126021
-0.0121614
-0.011746
-0.0113551
-0.0109877
-0.0106425
-0.0103185
-0.0100144
-0.00972912
-0.00946142
-0.00921026
-0.00897459
-0.00875342
-0.00854583
-0.00835095
-0.00816799
-0.00799618
-0.00783483
-0.0076833
-0.00754099
-0.00740734
-0.00728186
-0.00716405
-0.00705351
-0.00694981
-0.0068526
-0.00676153
-0.0066763
-0.00659661
-0.00652219
-0.00645282
-0.00638826
-0.00632831
-0.00627278
-0.0062215
-0.00617432
-0.0061311
-0.0060917
-0.00605601
-0.00602393
-0.00599537
-0.00597024
-0.00594847
-0.00592999
-0.00591477
-0.00590274
-0.00589383
-0.00588798
-0.00588578
-0.00588782
-0.00589352
-0.00590227
-0.00591414
-0.00870217
-0.00886603
-0.00906258
-0.00928965
-0.009545
-0.0098261
-0.0101295
-0.0104489
-0.0107719
-0.0110858
-0.0113875
-0.0116675
-0.011917
-0.0121269
-0.0122912
-0.0123914
-0.0124194
-0.0123814
-0.0122871
-0.0121458
-0.0119666
-0.0117582
-0.0115285
-0.0112841
-0.0110307
-0.0107728
-0.0105139
-0.010257
-0.0100042
-0.00975717
-0.00951718
-0.00928509
-0.00906146
-0.00884667
-0.0086409
-0.00844418
-0.00825646
-0.0080776
-0.00790738
-0.00774557
-0.00759189
-0.00744606
-0.00730777
-0.00717672
-0.00705262
-0.00693515
-0.00682404
-0.006719
-0.00661977
-0.00652609
-0.00643771
-0.0063544
-0.00627595
-0.00620215
-0.0061328
-0.00606773
-0.00600676
-0.00594974
-0.00589653
-0.00584697
-0.00580096
-0.00575836
-0.00571908
-0.00568302
-0.00565008
-0.00562019
-0.00559326
-0.00556924
-0.00554805
-0.00552966
-0.00551402
-0.00550107
-0.0054908
-0.00548313
-0.005478
-0.00547604
-0.00547786
-0.00548283
-0.00549036
-0.00550048
-0.00532924
-0.00539332
-0.0054749
-0.00557336
-0.00568838
-0.00582013
-0.00596924
-0.00613675
-0.00632402
-0.00653324
-0.00676683
-0.00702359
-0.0072977
-0.00757533
-0.00783801
-0.00806896
-0.008259
-0.00840617
-0.00851198
-0.00857925
-0.00861142
-0.0086124
-0.00858629
-0.00853713
-0.00846876
-0.00838473
-0.00828823
-0.00818209
-0.00806876
-0.00795035
-0.00782868
-0.00770524
-0.00758128
-0.00745785
-0.00733578
-0.00721574
-0.00709826
-0.00698375
-0.00687253
-0.00676483
-0.00666081
-0.00656057
-0.00646417
-0.00637164
-0.00628297
-0.00619812
-0.00611706
-0.00603971
-0.00596602
-0.00589589
-0.00582924
-0.005766
-0.00570606
-0.00564934
-0.00559576
-0.00554522
-0.00549766
-0.00545297
-0.00541109
-0.00537195
-0.00533548
-0.0053016
-0.00527026
-0.0052414
-0.00521497
-0.00519091
-0.00516919
-0.00514976
-0.00513258
-0.00511762
-0.00510485
-0.00509424
-0.00508578
-0.0050794
-0.00507506
-0.00507337
-0.00507493
-0.00507913
-0.00508537
-0.00509369
-0.00227733
-0.00233422
-0.00240893
-0.00250212
-0.00261474
-0.00274795
-0.00290302
-0.003081
-0.00328244
-0.00350709
-0.00375345
-0.00401786
-0.00429439
-0.00457494
-0.0048507
-0.00511368
-0.00535763
-0.0055783
-0.00577307
-0.00594073
-0.00608121
-0.00619534
-0.00628459
-0.00635088
-0.00639635
-0.00642323
-0.00643377
-0.0064301
-0.00641426
-0.00638812
-0.00635337
-0.00631154
-0.00626399
-0.00621191
-0.00615635
-0.00609821
-0.00603828
-0.00597723
-0.00591561
-0.00585393
-0.00579258
-0.00573191
-0.00567219
-0.00561366
-0.0055565
-0.00550088
-0.0054469
-0.00539467
-0.00534426
-0.00529572
-0.00524909
-0.00520439
-0.00516163
-0.00512083
-0.00508199
-0.00504508
-0.00501011
-0.00497705
-0.00494589
-0.00491661
-0.00488918
-0.00486359
-0.00483981
-0.00481783
-0.00479761
-0.00477914
-0.00476241
-0.00474738
-0.00473405
-0.00472239
-0.0047124
-0.00470406
-0.00469735
-0.00469224
-0.00468868
-0.00468726
-0.00468856
-0.00469199
-0.00469697
-0.00470355
-0.000391582
-0.000453633
-0.00053332
-0.000631293
-0.000748254
-0.000884887
-0.00104174
-0.00121904
-0.00141651
-0.00163318
-0.00186719
-0.00211561
-0.00237442
-0.00263872
-0.00290315
-0.00316248
-0.00341206
-0.00364812
-0.00386784
-0.00406928
-0.00425133
-0.00441357
-0.00455617
-0.00467971
-0.00478511
-0.00487352
-0.00494622
-0.00500456
-0.00504991
-0.00508361
-0.00510697
-0.00512121
-0.00512748
-0.00512683
-0.00512023
-0.00510856
-0.00509261
-0.00507309
-0.00505063
-0.00502579
-0.00499906
-0.00497088
-0.00494163
-0.00491164
-0.00488121
-0.00485058
-0.00481998
-0.00478958
-0.00475956
-0.00473005
-0.00470117
-0.00467302
-0.00464568
-0.00461923
-0.00459373
-0.00456921
-0.00454574
-0.00452333
-0.00450202
-0.00448182
-0.00446276
-0.00444485
-0.0044281
-0.00441252
-0.0043981
-0.00438486
-0.00437279
-0.0043619
-0.00435218
-0.00434364
-0.00433627
-0.00433007
-0.00432503
-0.00432113
-0.00431832
-0.00431717
-0.00431821
-0.0043209
-0.00432469
-0.00432961
0.000759501
0.000694153
0.000612246
0.000513401
0.000397298
0.000263724
0.000112658
-5.56301e-05
-0.000240481
-0.000440752
-0.000654751
-0.000880202
-0.00111428
-0.00135373
-0.00159509
-0.00183488
-0.00206987
-0.00229722
-0.00251455
-0.00272001
-0.00291222
-0.00309031
-0.0032538
-0.00340259
-0.00353686
-0.00365702
-0.00376368
-0.00385755
-0.00393944
-0.00401021
-0.00407073
-0.00412188
-0.0041645
-0.00419944
-0.00422745
-0.00424929
-0.00426565
-0.00427715
-0.00428438
-0.00428789
-0.00428817
-0.00428565
-0.00428074
-0.00427381
-0.00426517
-0.00425513
-0.00424394
-0.00423183
-0.00421901
-0.00420568
-0.00419198
-0.00417808
-0.00416408
-0.00415012
-0.00413628
-0.00412265
-0.00410932
-0.00409635
-0.0040838
-0.00407172
-0.00406015
-0.00404914
-0.00403872
-0.00402891
-0.00401974
-0.00401124
-0.00400342
-0.00399629
-0.00398988
-0.00398418
-0.00397921
-0.00397497
-0.00397147
-0.00396869
-0.00396658
-0.00396568
-0.00396648
-0.00396848
-0.00397117
-0.00397456
0.00142722
0.00136186
0.00128148
0.00118599
0.00107536
0.000949714
0.000809329
0.000654716
0.000486658
0.000306242
0.000114888
-8.5661e-05
-0.000293372
-0.000505993
-0.000721148
-0.000936454
-0.00114963
-0.00135857
-0.00156143
-0.00175665
-0.00194297
-0.00211944
-0.00228538
-0.00244039
-0.00258427
-0.00271704
-0.00283888
-0.00295007
-0.00305104
-0.00314226
-0.00322424
-0.00329757
-0.00336282
-0.00342057
-0.0034714
-0.00351588
-0.00355454
-0.00358791
-0.00361647
-0.00364069
-0.00366101
-0.00367782
-0.00369149
-0.00370237
-0.00371079
-0.00371702
-0.00372133
-0.00372396
-0.00372515
-0.00372507
-0.00372393
-0.00372188
-0.00371906
-0.00371563
-0.00371168
-0.00370735
-0.00370271
-0.00369786
-0.00369288
-0.00368784
-0.00368281
-0.00367783
-0.00367295
-0.00366823
-0.00366369
-0.00365938
-0.00365532
-0.00365155
-0.00364807
-0.00364491
-0.00364208
-0.00363961
-0.00363749
-0.00363571
-0.00363425
-0.00363357
-0.00363416
-0.00363553
-0.00363723
-0.00363925
0.00178542
0.0017232
0.00164771
0.00155903
0.00145732
0.00134288
0.0012161
0.00107758
0.000928066
0.000768515
0.000600078
0.000424088
0.000242041
5.55516e-05
-0.000133696
-0.000324008
-0.000513735
-0.000701326
-0.000885364
-0.0010646
-0.00123796
-0.00140458
-0.00156375
-0.00171496
-0.00185786
-0.00199227
-0.00211811
-0.00223542
-0.00234436
-0.00244513
-0.00253801
-0.00262334
-0.00270146
-0.00277277
-0.00283765
-0.00289651
-0.00294974
-0.00299774
-0.00304089
-0.00307957
-0.00311412
-0.00314488
-0.00317218
-0.00319631
-0.00321756
-0.00323619
-0.00325245
-0.00326657
-0.00327875
-0.0032892
-0.00329809
-0.00330559
-0.00331185
-0.00331702
-0.00332122
-0.00332456
-0.00332716
-0.00332911
-0.00333049
-0.00333139
-0.00333189
-0.00333204
-0.0033319
-0.00333153
-0.00333098
-0.00333028
-0.00332947
-0.00332859
-0.00332767
-0.00332672
-0.00332577
-0.00332483
-0.00332392
-0.00332303
-0.00332213
-0.00332166
-0.00332206
-0.00332288
-0.0033237
-0.00332453
0.00194655
0.00188936
0.00182062
0.00174051
0.00164926
0.00154724
0.00143487
0.00131273
0.00118148
0.00104194
0.000895025
0.000741767
0.000583292
0.000420794
0.00025551
8.86799e-05
-7.8476e-05
-0.000244792
-0.00040918
-0.000570649
-0.000728322
-0.000881438
-0.00102936
-0.00117158
-0.00130769
-0.00143742
-0.00156057
-0.00167704
-0.00178683
-0.00188998
-0.00198661
-0.00207686
-0.00216095
-0.00223909
-0.00231154
-0.00237855
-0.00244042
-0.0024974
-0.0025498
-0.00259788
-0.00264192
-0.00268219
-0.00271894
-0.00275243
-0.0027829
-0.00281056
-0.00283564
-0.00285833
-0.00287882
-0.0028973
-0.00291393
-0.00292886
-0.00294225
-0.00295422
-0.0029649
-0.0029744
-0.00298283
-0.00299029
-0.00299686
-0.00300264
-0.00300769
-0.00301208
-0.00301588
-0.00301915
-0.00302192
-0.00302425
-0.00302618
-0.00302775
-0.00302898
-0.0030299
-0.00303055
-0.00303092
-0.00303105
-0.00303092
-0.00303052
-0.00303023
-0.00303045
-0.0030308
-0.00303087
-0.00303067
0.00198443
0.00193313
0.00187188
0.00180086
0.00172036
0.00163073
0.00153237
0.0014258
0.0013116
0.00119044
0.00106304
0.000930216
0.000792835
0.000651798
0.000508036
0.000362482
0.000216058
6.96568e-05
-7.58784e-05
-0.000219762
-0.00036128
-0.000499793
-0.000634746
-0.000765665
-0.000892158
-0.00101391
-0.00113069
-0.00124233
-0.00134872
-0.00144982
-0.00154563
-0.0016362
-0.00172161
-0.00180198
-0.00187745
-0.00194817
-0.00201433
-0.00207611
-0.0021337
-0.00218732
-0.00223716
-0.00228341
-0.00232629
-0.00236598
-0.00240268
-0.00243657
-0.00246783
-0.00249663
-0.00252312
-0.00254747
-0.00256982
-0.00259031
-0.00260907
-0.00262622
-0.00264188
-0.00265615
-0.00266913
-0.00268092
-0.00269159
-0.00270124
-0.00270993
-0.00271773
-0.0027247
-0.0027309
-0.00273638
-0.00274119
-0.00274536
-0.00274893
-0.00275194
-0.00275442
-0.00275638
-0.00275785
-0.00275884
-0.00275935
-0.00275936
-0.00275923
-0.00275931
-0.00275925
-0.00275869
-0.00275765
0.00194657
0.0019013
0.00184746
0.00178528
0.00171501
0.00163697
0.00155154
0.00145915
0.00136029
0.00125551
0.00114539
0.00103057
0.000911726
0.000789554
0.000664769
0.000538089
0.000410226
0.000281872
0.00015369
2.63066e-05
-9.9697e-05
-0.000223791
-0.000345498
-0.000464401
-0.000580138
-0.000692405
-0.000800951
-0.000905581
-0.00100615
-0.00110255
-0.00119473
-0.00128266
-0.00136635
-0.00144584
-0.0015212
-0.00159251
-0.00165986
-0.00172339
-0.0017832
-0.00183945
-0.00189226
-0.00194179
-0.00198817
-0.00203157
-0.00207211
-0.00210995
-0.00214523
-0.00217809
-0.00220865
-0.00223705
-0.00226341
-0.00228784
-0.00231047
-0.00233138
-0.0023507
-0.00236851
-0.00238489
-0.00239994
-0.00241374
-0.00242635
-0.00243784
-0.00244828
-0.00245773
-0.00246623
-0.00247384
-0.0024806
-0.00248655
-0.00249172
-0.00249615
-0.00249986
-0.00250289
-0.00250524
-0.00250693
-0.00250796
-0.00250832
-0.00250833
-0.00250828
-0.00250789
-0.00250682
-0.00250508
0.00186386
0.0018243
0.0017774
0.00172337
0.00166242
0.00159486
0.00152099
0.00144119
0.00135585
0.00126543
0.00117039
0.00107125
0.000968525
0.000862774
0.000754551
0.00064442
0.000532936
0.000420647
0.000308079
0.000195736
8.40916e-05
-2.64146e-05
-0.00013538
-0.000242441
-0.000347275
-0.000449601
-0.000549177
-0.000645802
-0.000739311
-0.000829577
-0.000916504
-0.00100003
-0.00108011
-0.00115675
-0.00122995
-0.00129973
-0.00136616
-0.00142929
-0.00148919
-0.00154595
-0.00159967
-0.00165043
-0.00169834
-0.00174351
-0.00178604
-0.00182604
-0.00186362
-0.00189889
-0.00193195
-0.0019629
-0.00199184
-0.00201888
-0.00204409
-0.00206758
-0.00208943
-0.00210972
-0.00212852
-0.00214592
-0.00216197
-0.00217674
-0.0021903
-0.0022027
-0.00221399
-0.00222423
-0.00223344
-0.00224169
-0.00224899
-0.00225539
-0.00226092
-0.00226559
-0.00226944
-0.00227248
-0.00227472
-0.00227617
-0.00227681
-0.00227692
-0.00227678
-0.00227611
-0.00227464
-0.00227237
0.0017562
0.00172185
0.00168121
0.00163446
0.0015818
0.00152347
0.00145974
0.00139092
0.00131734
0.00123936
0.00115737
0.00107176
0.000982962
0.000891411
0.000797548
0.000701817
0.000604663
0.000506519
0.000407811
0.000308946
0.000210311
0.000112273
1.51693e-05
-8.06874e-05
-0.000175014
-0.000267558
-0.000358095
-0.000446432
-0.000532402
-0.000615869
-0.000696721
-0.000774871
-0.000850256
-0.000922834
-0.00099258
-0.00105949
-0.00112357
-0.00118485
-0.00124336
-0.00129915
-0.00135227
-0.00140278
-0.00145075
-0.00149625
-0.00153935
-0.00158014
-0.00161869
-0.00165507
-0.00168938
-0.00172169
-0.00175208
-0.00178061
-0.00180738
-0.00183245
-0.0018559
-0.00187778
-0.00189816
-0.00191711
-0.00193469
-0.00195095
-0.00196593
-0.0019797
-0.00199229
-0.00200376
-0.00201413
-0.00202344
-0.00203173
-0.00203903
-0.00204536
-0.00205074
-0.0020552
-0.00205875
-0.00206142
-0.00206318
-0.00206404
-0.00206424
-0.00206402
-0.00206315
-0.00206137
-0.00205869
0.00163645
0.00160672
0.00157159
0.00153123
0.00148579
0.00143549
0.00138055
0.00132122
0.00125778
0.00119051
0.00111972
0.00104575
0.000968936
0.000889618
0.000808155
0.000724902
0.000640215
0.000554446
0.000467938
0.000381024
0.000294024
0.00020724
0.00012096
3.54479e-05
-4.90493e-05
-0.000132308
-0.000214126
-0.000294323
-0.000372741
-0.000449243
-0.000523712
-0.000596052
-0.000666185
-0.00073405
-0.000799603
-0.000862814
-0.000923668
-0.000982161
-0.0010383
-0.0010921
-0.00114359
-0.00119281
-0.00123978
-0.00128456
-0.0013272
-0.00136774
-0.00140624
-0.00144276
-0.00147735
-0.00151008
-0.001541
-0.00157018
-0.00159766
-0.00162351
-0.00164778
-0.00167053
-0.00169181
-0.00171167
-0.00173016
-0.00174732
-0.00176319
-0.00177783
-0.00179126
-0.00180352
-0.00181466
-0.00182469
-0.00183364
-0.00184155
-0.00184843
-0.00185431
-0.0018592
-0.00186312
-0.00186607
-0.00186807
-0.00186909
-0.00186936
-0.00186909
-0.00186805
-0.00186605
-0.00186309
0.00151278
0.00148709
0.00145676
0.00142193
0.00138274
0.00133935
0.00129197
0.00124079
0.00118603
0.00112794
0.00106677
0.00100277
0.000936235
0.000867433
0.000796653
0.000724182
0.000650311
0.000575323
0.000499499
0.000423114
0.000346431
0.000269704
0.000193174
0.000117067
4.15954e-05
-3.30441e-05
-0.000106672
-0.000179124
-0.000250253
-0.00031993
-0.000388038
-0.000454479
-0.00051917
-0.000582039
-0.000643031
-0.000702102
-0.00075922
-0.000814362
-0.000867518
-0.000918683
-0.000967864
-0.00101507
-0.00106032
-0.00110365
-0.00114507
-0.00118461
-0.00122232
-0.00125824
-0.00129239
-0.00132483
-0.0013556
-0.00138473
-0.00141227
-0.00143827
-0.00146277
-0.00148581
-0.00150742
-0.00152766
-0.00154656
-0.00156415
-0.00158047
-0.00159556
-0.00160944
-0.00162215
-0.00163372
-0.00164417
-0.00165352
-0.00166179
-0.00166901
-0.0016752
-0.00168036
-0.00168451
-0.00168766
-0.00168981
-0.00169096
-0.00169128
-0.00169096
-0.00168981
-0.00168767
-0.00168452
0.00139036
0.00136815
0.00134196
0.00131188
0.00127805
0.0012406
0.00119969
0.00115547
0.00110815
0.00105791
0.00100496
0.000949507
0.000891782
0.000832011
0.000770427
0.000707263
0.000642756
0.00057714
0.000510644
0.000443496
0.000375915
0.000308114
0.000240295
0.000172652
0.000105368
3.86136e-05
-2.74524e-05
-9.26831e-05
-0.000156945
-0.000220115
-0.000282086
-0.000342761
-0.000402054
-0.000459893
-0.000516214
-0.000570967
-0.000624108
-0.000675606
-0.000725434
-0.000773578
-0.000820026
-0.000864776
-0.000907831
-0.000949198
-0.000988889
-0.00102692
-0.00106332
-0.00109809
-0.00113128
-0.0011629
-0.00119299
-0.00122157
-0.00124868
-0.00127434
-0.00129859
-0.00132146
-0.00134297
-0.00136317
-0.00138208
-0.00139972
-0.00141613
-0.00143134
-0.00144536
-0.00145823
-0.00146996
-0.00148057
-0.00149009
-0.00149854
-0.00150592
-0.00151225
-0.00151755
-0.00152183
-0.00152509
-0.00152733
-0.00152855
-0.00152891
-0.00152856
-0.00152735
-0.00152512
-0.00152186
0.00127232
0.00125311
0.00123046
0.00120447
0.00117522
0.00114284
0.00110745
0.00106919
0.00102822
0.000984689
0.000938767
0.000890631
0.000840462
0.000788447
0.000734777
0.000679644
0.000623241
0.000565761
0.000507396
0.000448333
0.000388755
0.000328842
0.000268765
0.000208688
0.00014877
8.91586e-05
2.99932e-05
-2.85957e-05
-8.64875e-05
-0.000143571
-0.000199745
-0.000254918
-0.000309007
-0.000361939
-0.00041365
-0.000464085
-0.000513196
-0.000560943
-0.000607293
-0.000652222
-0.000695709
-0.000737741
-0.000778309
-0.00081741
-0.000855044
-0.000891216
-0.000925934
-0.000959208
-0.000991053
-0.00102148
-0.00105052
-0.00107817
-0.00110447
-0.00112943
-0.00115308
-0.00117543
-0.00119651
-0.00121635
-0.00123496
-0.00125236
-0.00126858
-0.00128363
-0.00129754
-0.00131033
-0.00132201
-0.00133259
-0.0013421
-0.00135055
-0.00135795
-0.00136431
-0.00136964
-0.00137395
-0.00137725
-0.00137953
-0.0013808
-0.00138118
-0.00138081
-0.00137956
-0.00137729
-0.00137401
0.0011605
0.00114385
0.00112424
0.00110173
0.0010764
0.00104834
0.00101768
0.000984508
0.000948961
0.000911165
0.00087126
0.00082939
0.000785704
0.000740355
0.0006935
0.000645299
0.00059591
0.000545494
0.00049421
0.000442214
0.00038966
0.000336699
0.000283478
0.000230135
0.000176808
0.000123624
7.07059e-05
1.81685e-05
-3.38802e-05
-8.53398e-05
-0.000136117
-0.000186128
-0.000235293
-0.000283542
-0.000330812
-0.000377047
-0.000422197
-0.000466218
-0.000509074
-0.000550733
-0.00059117
-0.000630364
-0.000668298
-0.000704961
-0.000740344
-0.000774445
-0.00080726
-0.000838793
-0.000869048
-0.000898031
-0.000925752
-0.000952219
-0.000977446
-0.00100144
-0.00102423
-0.00104581
-0.00106621
-0.00108544
-0.00110351
-0.00112045
-0.00113626
-0.00115096
-0.00116457
-0.00117709
-0.00118854
-0.00119894
-0.0012083
-0.00121662
-0.00122392
-0.0012302
-0.00123548
-0.00123975
-0.00124303
-0.00124532
-0.0012466
-0.001247
-0.00124662
-0.00124536
-0.0012431
-0.00123984
0.00105584
0.00104139
0.00102438
0.00100484
0.000982857
0.000958506
0.000931872
0.000903051
0.000872143
0.000839258
0.000804508
0.000768012
0.000729895
0.000690282
0.000649303
0.00060709
0.000563776
0.000519494
0.000474377
0.000428556
0.000382161
0.000335319
0.000288155
0.000240789
0.000193337
0.00014591
9.86165e-05
5.15567e-05
4.82666e-06
-4.14835e-05
-8.72894e-05
-0.000132513
-0.000177081
-0.000220927
-0.000263991
-0.000306217
-0.000347556
-0.000387963
-0.0004274
-0.000465831
-0.000503227
-0.000539563
-0.000574817
-0.000608973
-0.000642016
-0.000673935
-0.000704724
-0.000734377
-0.000762892
-0.000790268
-0.000816508
-0.000841614
-0.000865592
-0.000888448
-0.000910189
-0.000930824
-0.00095036
-0.000968808
-0.000986177
-0.00100248
-0.00101772
-0.00103191
-0.00104507
-0.00105719
-0.0010683
-0.00107839
-0.00108748
-0.00109558
-0.00110269
-0.00110881
-0.00111397
-0.00111815
-0.00112136
-0.00112361
-0.00112489
-0.00112529
-0.00112491
-0.00112366
-0.00112144
-0.00111825
0.000958743
0.000946183
0.000931384
0.000914396
0.000895276
0.000874089
0.000850907
0.000825808
0.000798875
0.000770199
0.000739872
0.000707995
0.000674669
0.000639999
0.000604094
0.000567062
0.000529015
0.000490065
0.000450322
0.000409897
0.0003689
0.00032744
0.000285622
0.000243549
0.000201322
0.000159037
0.000116787
7.46627e-05
3.27474e-05
-8.87788e-06
-5.01372e-05
-9.09591e-05
-0.000131277
-0.000171029
-0.000210157
-0.000248609
-0.000286337
-0.000323297
-0.000359448
-0.000394756
-0.000429188
-0.000462718
-0.00049532
-0.000526974
-0.000557661
-0.000587367
-0.00061608
-0.000643789
-0.000670488
-0.000696171
-0.000720834
-0.000744476
-0.000767096
-0.000788695
-0.000809276
-0.000828841
-0.000847395
-0.000864942
-0.000881488
-0.000897037
-0.000911596
-0.000925171
-0.000937768
-0.000949394
-0.000960054
-0.000969754
-0.000978499
-0.000986296
-0.000993149
-0.000999062
-0.00100404
-0.00100809
-0.0010112
-0.00101339
-0.00101464
-0.00101504
-0.00101467
-0.00101345
-0.00101129
-0.0010082
0.000869244
0.000858298
0.000845401
0.000830595
0.000813928
0.000795452
0.000775228
0.000753321
0.0007298
0.000704739
0.000678217
0.000650316
0.000621121
0.00059072
0.000559202
0.000526659
0.000493185
0.000458874
0.000423818
0.000388112
0.000351849
0.000315121
0.000278018
0.00024063
0.000203042
0.000165339
0.000127602
8.99093e-05
5.23356e-05
1.49527e-05
-2.21711e-05
-5.89713e-05
-9.53872e-05
-0.000131361
-0.000166841
-0.000201775
-0.000236119
-0.00026983
-0.000302868
-0.000335199
-0.00036679
-0.000397613
-0.00042764
-0.00045685
-0.000485221
-0.000512735
-0.000539379
-0.000565137
-0.00059
-0.000613958
-0.000637004
-0.000659132
-0.000680338
-0.000700618
-0.000719971
-0.000738396
-0.000755894
-0.000772465
-0.00078811
-0.000802832
-0.000816633
-0.000829517
-0.000841485
-0.000852542
-0.000862691
-0.000871935
-0.000880278
-0.000887722
-0.000894271
-0.000899927
-0.000904693
-0.000908573
-0.000911566
-0.000913672
-0.000914887
-0.000915281
-0.000914919
-0.000913736
-0.000911662
-0.000908699
0.00078714
0.00077758
0.000766317
0.000753384
0.000738821
0.000722674
0.000704992
0.000685828
0.000665242
0.000643294
0.000620051
0.000595581
0.000569955
0.000543246
0.00051553
0.000486885
0.000457388
0.000427118
0.000396156
0.00036458
0.00033247
0.000299905
0.000266962
0.000233717
0.000200246
0.000166621
0.000132913
9.91913e-05
6.55216e-05
3.19677e-05
-1.40951e-06
-3.45519e-05
-6.74042e-05
-9.99142e-05
-0.000132033
-0.000163713
-0.000194913
-0.00022559
-0.000255709
-0.000285234
-0.000314134
-0.000342379
-0.000369943
-0.000396801
-0.000422932
-0.000448317
-0.000472938
-0.000496779
-0.000519827
-0.000542071
-0.0005635
-0.000584105
-0.00060388
-0.000622819
-0.000640916
-0.000658169
-0.000674573
-0.000690127
-0.00070483
-0.000718681
-0.000731679
-0.000743826
-0.000755121
-0.000765566
-0.000775162
-0.000783909
-0.00079181
-0.000798867
-0.000805079
-0.000810449
-0.000814979
-0.000818669
-0.000821521
-0.000823532
-0.0008247
-0.000825082
-0.000824734
-0.0008236
-0.000821623
-0.000818804
0.000712098
0.00070373
0.000693871
0.000682549
0.000669798
0.000655655
0.000640161
0.000623362
0.000605306
0.000586046
0.000565635
0.000544132
0.000521596
0.000498089
0.000473675
0.000448418
0.000422386
0.000395644
0.000368261
0.000340305
0.000311842
0.000282941
0.000253668
0.000224089
0.000194269
0.000164271
0.000134157
0.000103988
7.38223e-05
4.37159e-05
1.37232e-05
-1.61035e-05
-4.57144e-05
-7.50618e-05
-0.000104101
-0.000132788
-0.000161084
-0.000188951
-0.000216352
-0.000243256
-0.00026963
-0.000295446
-0.000320678
-0.000345302
-0.000369294
-0.000392636
-0.000415308
-0.000437294
-0.000458578
-0.000479148
-0.000498991
-0.000518097
-0.000536456
-0.00055406
-0.000570903
-0.000586978
-0.00060228
-0.000616806
-0.00063055
-0.000643511
-0.000655687
-0.000667075
-0.000677674
-0.000687483
-0.000696502
-0.000704731
-0.000712168
-0.000718815
-0.000724672
-0.000729738
-0.000734015
-0.000737502
-0.000740201
-0.000742108
-0.000743221
-0.000743588
-0.000743257
-0.000742179
-0.000740307
-0.000737643
0.0006437
0.00063636
0.000627713
0.000617781
0.000606592
0.000594178
0.000580574
0.000565818
0.00054995
0.000533014
0.000515057
0.000496126
0.000476272
0.000455547
0.000434006
0.000411703
0.000388694
0.000365036
0.000340788
0.000316007
0.000290751
0.000265078
0.000239045
0.00021271
0.000186128
0.000159355
0.000132446
0.000105453
7.8427e-05
5.14191e-05
2.44774e-05
-2.3514e-06
-2.90225e-05
-5.54927e-05
-8.17209e-05
-0.000107668
-0.000133297
-0.000158571
-0.000183459
-0.000207928
-0.000231949
-0.000255494
-0.000278538
-0.000301057
-0.000323028
-0.000344432
-0.000365248
-0.00038546
-0.000405052
-0.000424009
-0.000442319
-0.000459969
-0.000476949
-0.000493249
-0.000508861
-0.000523776
-0.000537989
-0.000551494
-0.000564285
-0.000576357
-0.000587708
-0.000598333
-0.00060823
-0.000617397
-0.000625831
-0.000633531
-0.000640496
-0.000646725
-0.000652216
-0.00065697
-0.000660985
-0.000664262
-0.000666801
-0.000668598
-0.000669653
-0.000670003
-0.000669689
-0.000668671
-0.00066691
-0.000664408
0.000581494
0.000575044
0.000567443
0.000558713
0.000548876
0.000537958
0.00052599
0.000513003
0.000499031
0.000484112
0.000468284
0.000451589
0.000434068
0.000415767
0.00039673
0.000377006
0.000356641
0.000335685
0.000314186
0.000292195
0.000269762
0.000246935
0.000223765
0.000200302
0.000176594
0.000152689
0.000128635
0.000104479
8.02659e-05
5.604e-05
3.18444e-05
7.72102e-06
-1.62898e-05
-4.01493e-05
-6.38199e-05
-8.7266e-05
-0.000110453
-0.000133349
-0.000155922
-0.000178143
-0.000199984
-0.00022142
-0.000242424
-0.000262975
-0.00028305
-0.000302629
-0.000321694
-0.000340226
-0.00035821
-0.000375631
-0.000392474
-0.000408728
-0.000424381
-0.000439423
-0.000453843
-0.000467633
-0.000480786
-0.000493294
-0.00050515
-0.000516351
-0.000526889
-0.000536762
-0.000545964
-0.000554493
-0.000562346
-0.00056952
-0.000576012
-0.000581822
-0.000586947
-0.000591386
-0.000595138
-0.000598203
-0.000600579
-0.000602264
-0.000603257
-0.000603589
-0.000603294
-0.000602338
-0.00060069
-0.00059835
0.000525015
0.000519336
0.000512643
0.000504955
0.000496289
0.00048667
0.000476122
0.000464671
0.000452347
0.000439182
0.000425207
0.000410459
0.000394973
0.000378787
0.00036194
0.000344471
0.000326423
0.000307837
0.000288754
0.000269218
0.000249272
0.000228959
0.000208321
0.000187402
0.000166245
0.000144892
0.000123383
0.000101761
8.00649e-05
5.83346e-05
3.66082e-05
1.4923e-05
-6.68461e-06
-2.81798e-05
-4.95285e-05
-7.06983e-05
-9.16579e-05
-0.000112377
-0.000132827
-0.000152981
-0.000172813
-0.000192297
-0.00021141
-0.000230131
-0.000248439
-0.000266313
-0.000283735
-0.000300689
-0.000317157
-0.000333126
-0.000348581
-0.000363509
-0.000377898
-0.000391737
-0.000405016
-0.000417726
-0.000429858
-0.000441405
-0.000452359
-0.000462714
-0.000472464
-0.000481604
-0.000490129
-0.000498035
-0.000505319
-0.000511976
-0.000518005
-0.000523402
-0.000528165
-0.000532294
-0.000535785
-0.000538639
-0.000540853
-0.000542426
-0.000543356
-0.00054367
-0.000543393
-0.000542501
-0.000540965
-0.000538787
0.000473805
0.000468796
0.000462893
0.00045611
0.000448463
0.000439973
0.00043066
0.000420547
0.000409659
0.000398022
0.000385664
0.000372616
0.000358908
0.000344573
0.000329643
0.000314153
0.000298138
0.000281634
0.000264678
0.000247305
0.000229555
0.000211463
0.000193067
0.000174405
0.000155514
0.00013643
0.000117191
9.78316e-05
7.83884e-05
5.88958e-05
3.9388e-05
1.98982e-05
4.58882e-07
-1.88984e-05
-3.81431e-05
-5.72456e-05
-7.61773e-05
-9.49109e-05
-0.00011342
-0.000131679
-0.000149663
-0.000167351
-0.000184719
-0.000201747
-0.000218415
-0.000234704
-0.000250596
-0.000266075
-0.000281124
-0.00029573
-0.000309878
-0.000323556
-0.00033675
-0.000349451
-0.000361648
-0.00037333
-0.00038449
-0.000395119
-0.000405208
-0.000414753
-0.000423745
-0.00043218
-0.000440052
-0.000447357
-0.00045409
-0.000460247
-0.000465825
-0.000470822
-0.000475234
-0.00047906
-0.000482297
-0.000484944
-0.000487
-0.000488462
-0.00048933
-0.000489624
-0.000489367
-0.000488537
-0.000487112
-0.000485092
0.000427421
0.000422996
0.00041778
0.000411786
0.000405028
0.000397522
0.000389287
0.000380341
0.000370706
0.000360406
0.000349462
0.000337902
0.000325752
0.000313038
0.000299791
0.000286039
0.000271812
0.000257142
0.000242059
0.000226597