/*--------------------------------*- C++ -*----------------------------------*\
| =========                 |                                                 |
| \\      /  F ield         | OpenFOAM: The Open Source CFD Toolbox           |
|  \\    /   O peration     | Version:  2306                                  |
|   \\  /    A nd           | Website:  www.openfoam.com                      |
|    \\/     M anipulation  |                                                 |
\*---------------------------------------------------------------------------*/
FoamFile
{
    version     2.0;
    format      ascii;
    arch        "LSB;label=32;scalar=64";
    class       surfaceScalarField;
    location    "62.5";
    object      phi;
}
// * * * * * * * * * * * * * * * * * * * * * * * * * * * * * * * * * * * * * //

dimensions      [0 3 -1 0 0 0 0];

oriented        oriented;

internalField   nonuniform List<scalar> 
37980
(
1.33701
4.46476
-2.33939e-08
1.60852
4.45319
-2.48084e-08
1.89348
4.43974
-2.42321e-08
2.19396
4.42423
-2.36429e-08
2.51292
4.40574
-2.3458e-08
2.8567
4.38093
-2.52618e-08
3.24199
4.33941
-2.055e-08
3.71576
4.25093
-1.30856e-08
4.41649
4.02397
-1.07129e-08
5.76968
3.37152
1.4476e-07
4.30803
1.46166
1.87638e-08
3.31503
0.992998
7.06393e-08
2.58896
0.72607
7.89957e-09
2.06722
0.521736
3.18906e-10
1.69076
0.376463
4.91932e-09
1.42488
0.265877
6.41364e-09
1.23979
0.185092
5.25073e-09
1.11147
0.128319
3.39478e-09
1.02161
0.0898554
1.87361e-09
0.956969
0.0646457
7.94209e-10
0.908457
0.0485122
5.74894e-11
0.870075
0.038382
-3.16923e-10
0.837958
0.032117
-4.88582e-10
0.809684
0.0282744
-4.59189e-10
0.783775
0.025909
-3.83554e-10
0.759354
0.0244206
-2.51368e-10
0.735915
0.0234387
-1.57151e-10
0.713175
0.0227403
-6.64969e-11
0.69098
0.0221946
-2.49703e-11
0.669254
0.0217269
9.58825e-12
0.647958
0.0212959
1.32991e-11
0.627078
0.0208799
2.03422e-11
0.606609
0.0204684
1.29944e-11
0.586552
0.0200574
1.42418e-11
0.566906
0.0196463
8.89779e-12
0.54767
0.0192362
1.16054e-11
0.52884
0.0188292
1.02113e-11
0.510413
0.0184274
1.43014e-11
0.49238
0.0180327
1.51037e-11
0.474733
0.0176469
1.91256e-11
0.457462
0.0172716
2.05202e-11
0.440554
0.0169078
2.37029e-11
0.423997
0.0165565
2.49864e-11
0.407779
0.0162183
2.7249e-11
0.391885
0.0158936
2.82765e-11
0.376303
0.0155825
2.98169e-11
0.361018
0.0152851
3.06293e-11
0.346016
0.0150014
3.16641e-11
0.331285
0.0147313
3.23142e-11
0.316811
0.0144745
3.29976e-11
0.30258
0.0142308
3.35122e-11
0.28858
0.0139998
3.39394e-11
0.274799
0.0137812
3.43284e-11
0.261224
0.0135748
3.45584e-11
0.247844
0.0133801
3.48289e-11
0.234647
0.0131969
3.49016e-11
0.221622
0.0130247
3.50667e-11
0.208759
0.0128633
3.50127e-11
0.196047
0.0127122
3.50934e-11
0.183475
0.0125713
3.49381e-11
0.171035
0.0124402
3.49627e-11
0.158717
0.0123186
3.47267e-11
0.14651
0.0122063
3.47278e-11
0.134407
0.012103
3.44247e-11
0.122399
0.0120083
3.44319e-11
0.110477
0.0119222
3.40584e-11
0.0986325
0.0118444
3.40806e-11
0.0868579
0.0117745
3.35926e-11
0.0751454
0.0117125
3.35901e-11
0.0634872
0.0116582
3.29121e-11
0.0518758
0.0116114
3.29026e-11
0.0403038
0.011572
3.21896e-11
0.0287637
0.0115401
3.2545e-11
0.0172477
0.011516
3.09171e-11
0.0057474
0.0115003
2.7282e-11
-0.00574727
0.0114947
1.38664e-11
-0.0172476
0.0115003
4.38661e-11
-0.0287636
0.011516
3.63944e-11
-0.0403037
0.0115401
6.38155e-11
0.011572
7.02912e-11
2.269
4.02615
-3.25745e-10
2.72961
3.99258
-2.17602e-09
3.21975
3.94961
-3.54496e-09
3.74955
3.89443
-6.13516e-09
4.33251
3.82278
-1.06601e-08
4.9854
3.72804
-1.41982e-08
5.72498
3.59983
-1.63858e-08
6.55407
3.42184
-1.76762e-08
7.40851
3.16953
-1.62207e-08
7.97286
2.80716
-1.05843e-08
7.10412
2.33039
1.48376e-08
6.21712
1.88
1.07103e-08
5.48242
1.46077
8.98107e-09
4.88869
1.11546
6.78452e-09
4.41151
0.853645
5.59856e-09
4.01951
0.657876
3.96415e-09
3.6945
0.510102
2.74085e-09
3.42373
0.399092
1.3908e-09
3.19639
0.317195
2.49903e-10
3.00324
0.257793
-5.09674e-10
2.8366
0.215155
-8.61841e-10
2.69041
0.184578
-9.54272e-10
2.56008
0.162444
-8.65488e-10
2.44224
0.146116
-6.93888e-10
2.3344
0.133748
-4.99226e-10
2.23474
0.124082
-3.25746e-10
2.1419
0.116278
-1.91288e-10
2.05486
0.109782
-1.00701e-10
1.97282
0.104228
-4.66047e-11
1.89517
0.099374
-1.97259e-11
1.82142
0.0950558
-9.05377e-12
1.75113
0.0911618
-7.27989e-12
1.68399
0.0876137
-8.60854e-12
1.61969
0.0843553
-1.03158e-11
1.55799
0.0813453
-1.1182e-11
1.49867
0.0785525
-1.07982e-11
1.44155
0.0759527
-9.82152e-12
1.38645
0.0735267
-8.18675e-12
1.33323
0.0712585
-6.83635e-12
1.28174
0.0691352
-5.38858e-12
1.23186
0.0671452
-4.62688e-12
1.18349
0.0652788
-3.90242e-12
1.13652
0.0635272
-3.85582e-12
1.09086
0.0618827
-3.76005e-12
1.04641
0.0603384
-4.18913e-12
1.00311
0.0588878
-4.45843e-12
0.960868
0.0575252
-5.10415e-12
0.919624
0.0562452
-5.52895e-12
0.879312
0.0550431
-6.22564e-12
0.839872
0.0539144
-6.69036e-12
0.801248
0.0528549
-7.35853e-12
0.763387
0.0518609
-7.81458e-12
0.72624
0.0509289
-8.42514e-12
0.689759
0.0500557
-8.85675e-12
0.6539
0.0492384
-9.40629e-12
0.618623
0.0484741
-9.81229e-12
0.583887
0.0477605
-1.03062e-11
0.549655
0.0470952
-1.06898e-11
0.515892
0.046476
-1.11382e-11
0.482562
0.045901
-1.15038e-11
0.449634
0.0453685
-1.19178e-11
0.417076
0.0448767
-1.2271e-11
0.384858
0.0444241
-1.26657e-11
0.352951
0.0440094
-1.30163e-11
0.321328
0.0436313
-1.34137e-11
0.289962
0.0432887
-1.37831e-11
0.258826
0.0429804
-1.42286e-11
0.227895
0.0427056
-1.46764e-11
0.197144
0.0424634
-1.52711e-11
0.166549
0.0422532
-1.59069e-11
0.136086
0.0420744
-1.67263e-11
0.105731
0.0419266
-1.7448e-11
0.0754613
0.04181
-1.8147e-11
0.0452524
0.0417249
-1.95685e-11
0.0150804
0.0416723
-2.39685e-11
-0.0150792
0.0416543
-3.6482e-11
-0.0452512
0.0416723
-1.5473e-11
-0.0754601
0.0417249
-2.3284e-11
-0.10573
0.04181
3.71462e-13
0.0419266
4.93496e-12
2.21331
3.6127
4.2728e-10
2.63531
3.57058
-7.84581e-11
3.06754
3.51737
-5.16667e-10
3.51148
3.4505
-1.20305e-09
3.96785
3.36641
-2.26167e-09
4.43541
3.26048
-2.81038e-09
4.90823
3.12701
-2.62963e-09
5.37005
2.96002
-1.83756e-09
5.78394
2.75564
-1.00687e-09
6.07673
2.51437
6.00734e-10
6.16697
2.24016
1.84352e-09
6.0995
1.94746
3.8639e-09
5.90645
1.65382
4.71867e-09
5.64108
1.38084
4.50132e-09
5.35251
1.14222
3.26449e-09
5.06628
0.944101
2.19136e-09
4.79179
0.784601
1.34734e-09
4.53253
0.658349
5.03963e-10
4.29016
0.559564
-1.83911e-10
4.06515
0.482798
-6.37849e-10
3.85713
0.42318
-8.32647e-10
3.66511
0.376594
-8.54143e-10
3.48782
0.33974
-7.56161e-10
3.32383
0.310098
-6.07143e-10
3.17178
0.285806
-4.48273e-10
3.03034
0.26552
-3.10844e-10
2.89834
0.248277
-2.0542e-10
2.77473
0.233392
-1.34897e-10
2.65859
0.22037
-9.16723e-11
2.54911
0.208851
-6.91793e-11
2.4456
0.198567
-5.81595e-11
2.34745
0.189314
-5.37098e-11
2.25413
0.180934
-5.10819e-11
2.16518
0.173306
-4.87555e-11
2.08019
0.166329
-4.56488e-11
1.99882
0.159924
-4.18176e-11
1.92075
0.154025
-3.76464e-11
1.8457
0.148576
-3.32962e-11
1.77343
0.143532
-2.93753e-11
1.70371
0.138854
-2.5703e-11
1.63635
0.134506
-2.27726e-11
1.57116
0.130461
-2.01481e-11
1.508
0.126691
-1.82284e-11
1.44671
0.123176
-1.6493e-11
1.38715
0.119894
-1.53075e-11
1.32921
0.116828
-1.41733e-11
1.27278
0.113962
-1.34433e-11
1.21774
0.111281
-1.26822e-11
1.16401
0.108775
-1.22203e-11
1.11149
0.10643
-1.16933e-11
1.06011
0.104236
-1.13938e-11
1.00979
0.102184
-1.10259e-11
0.960453
0.100266
-1.08344e-11
0.912036
0.0984728
-1.05855e-11
0.864475
0.0967987
-1.04733e-11
0.817713
0.0952368
-1.03195e-11
0.771692
0.0937813
-1.02698e-11
0.72636
0.0924267
-1.01945e-11
0.681668
0.0911684
-1.01971e-11
0.637567
0.0900018
-1.01866e-11
0.594013
0.088923
-1.02351e-11
0.550961
0.0879283
-1.02792e-11
0.508371
0.0870143
-1.03718e-11
0.466202
0.086178
-1.04658e-11
0.424417
0.0854168
-1.06089e-11
0.382977
0.0847281
-1.07605e-11
0.341848
0.0841097
-1.09854e-11
0.300994
0.0835598
-1.12419e-11
0.260381
0.0830767
-1.16395e-11
0.219975
0.082659
-1.21014e-11
0.179744
0.0823055
-1.2753e-11
0.139655
0.0820157
-1.33375e-11
0.0996757
0.081789
-1.39708e-11
0.0597747
0.0816258
-1.55234e-11
0.0199203
0.0815267
-2.03568e-11
-0.0199188
0.0814934
-3.42414e-11
-0.0597733
0.0815267
-1.17582e-11
-0.0996742
0.0816258
-2.5364e-11
-0.139653
0.081789
1.13563e-12
0.0820156
1.13829e-12
2.07409
3.23142
-7.6673e-10
2.45798
3.18669
-9.50422e-10
2.84405
3.13131
-9.418e-10
3.23097
3.06357
-1.08249e-09
3.61599
2.98139
-1.10475e-09
3.99414
2.88233
-8.15011e-10
4.35724
2.7639
-2.82908e-10
4.69312
2.62415
5.36124e-10
4.98625
2.46251
1.37647e-09
5.22023
2.28039
2.16134e-09
5.3791
2.08128
2.60583e-09
5.45469
1.87188
2.70973e-09
5.44747
1.66104
2.51799e-09
5.36942
1.45889
2.15681e-09
5.2377
1.27394
1.67169e-09
5.07015
1.11165
1.09101e-09
4.8813
0.973446
5.53481e-10
4.68191
0.857744
8.58669e-11
4.47978
0.761687
-2.25703e-10
4.28043
0.682148
-4.06646e-10
4.08746
0.616148
-4.54548e-10
3.903
0.561061
-4.21762e-10
3.72805
0.514688
-3.35833e-10
3.56289
0.475257
-2.35276e-10
3.40732
0.441382
-1.39912e-10
3.26085
0.411989
-6.50936e-11
3.12287
0.386252
-1.33771e-11
2.99273
0.363534
1.66089e-11
2.86976
0.343336
3.06604e-11
2.75335
0.325267
3.38645e-11
2.6429
0.309012
3.17408e-11
2.5379
0.294319
2.76684e-11
2.43785
0.28098
2.37878e-11
2.34233
0.268823
2.1254e-11
2.25096
0.257705
1.9765e-11
2.16337
0.247508
1.97321e-11
2.07927
0.238128
2.00256e-11
1.99837
0.229479
2.10824e-11
1.92041
0.221488
2.1768e-11
1.84518
0.214089
2.27715e-11
1.77245
0.207228
2.31396e-11
1.70206
0.200855
2.3708e-11
1.63382
0.194928
2.36569e-11
1.56759
0.18941
2.38266e-11
1.50321
0.184267
2.34906e-11
1.44057
0.179471
2.3416e-11
1.37954
0.174993
2.29455e-11
1.32001
0.170812
2.27491e-11
1.26188
0.166906
2.22398e-11
1.20505
0.163257
2.1988e-11
1.14944
0.159846
2.14844e-11
1.09496
0.15666
2.1206e-11
1.04155
0.153683
2.07244e-11
0.989114
0.150904
2.04305e-11
0.937602
0.148311
1.99753e-11
0.886945
0.145893
1.96718e-11
0.837085
0.143642
1.9243e-11
0.787963
0.141548
1.89344e-11
0.739527
0.139605
1.85329e-11
0.691725
0.137804
1.82257e-11
0.644508
0.13614
1.78523e-11
0.597831
0.134606
1.75532e-11
0.551647
0.133197
1.72081e-11
0.505916
0.13191
1.69231e-11
0.460594
0.130738
1.66048e-11
0.415642
0.12968
1.63376e-11
0.371022
0.12873
1.60384e-11
0.326696
0.127886
1.57809e-11
0.282626
0.127147
1.54761e-11
0.238777
0.126508
1.5208e-11
0.195113
0.125969
1.49238e-11
0.151601
0.125528
1.48147e-11
0.108204
0.125185
1.49425e-11
0.0648902
0.12494
1.46996e-11
0.0216252
0.124792
1.25405e-11
-0.0216237
0.124742
4.2015e-12
-0.0648888
0.124792
1.93797e-11
-0.108203
0.12494
1.66193e-11
-0.151599
0.125185
3.4426e-11
0.125528
4.14593e-11
1.89197
2.8882
-2.66769e-10
2.23388
2.84478
-3.68416e-10
2.57327
2.79192
-4.49114e-10
2.90815
2.72869
-5.23532e-10
3.2355
2.65404
-5.5308e-10
3.55096
2.56687
-4.19289e-10
3.84856
2.46629
-2.13611e-10
4.12085
2.35186
1.17774e-10
4.35934
2.22402
4.43014e-10
4.55545
2.08428
7.53063e-10
4.70132
1.93541
9.28839e-10
4.79168
1.78152
9.72149e-10
4.82516
1.62757
8.69775e-10
4.80525
1.47879
6.47322e-10
4.73957
1.33962
3.68595e-10
4.63825
1.21297
6.32336e-11
4.51169
1.10001
-1.8345e-10
4.36891
1.00052
-3.77407e-10
4.21708
0.913516
-4.77089e-10
4.06159
0.83764
-5.16418e-10
3.90628
0.771454
-4.88463e-10
3.75376
0.713581
-4.31313e-10
3.60567
0.662783
-3.51238e-10
3.46294
0.617991
-2.75029e-10
3.32601
0.578306
-2.04975e-10
3.19502
0.542978
-1.5292e-10
3.06989
0.511387
-1.13743e-10
2.9504
0.483021
-8.98942e-11
2.83629
0.457449
-7.39269e-11
2.72724
0.434315
-6.56335e-11
2.62294
0.413314
-5.9477e-11
2.52307
0.394191
-5.55072e-11
2.42732
0.376727
-5.12356e-11
2.3354
0.360736
-4.73366e-11
2.24705
0.346057
-4.28646e-11
2.16201
0.332551
-3.85698e-11
2.08004
0.320098
-3.43017e-11
2.00092
0.308594
-3.0375e-11
1.92446
0.297948
-2.70305e-11
1.85047
0.288079
-2.40379e-11
1.77878
0.278919
-2.15673e-11
1.70924
0.270404
-1.94026e-11
1.64168
0.26248
-1.78001e-11
1.576
0.255099
-1.63342e-11
1.51205
0.248217
-1.5321e-11
1.44972
0.241796
-1.43228e-11
1.38891
0.235801
-1.36841e-11
1.32952
0.230202
-1.29911e-11
1.27146
0.22497
-1.25866e-11
1.21463
0.220081
-1.20964e-11
1.15897
0.215512
-1.1842e-11
1.10439
0.211243
-1.14959e-11
1.05081
0.207254
-1.13412e-11
0.998189
0.20353
-1.11032e-11
0.946445
0.200055
-1.10197e-11
0.895524
0.196815
-1.08655e-11
0.845368
0.193798
-1.08345e-11
0.795925
0.190992
-1.07465e-11
0.747143
0.188387
-1.07555e-11
0.698974
0.185973
-1.07193e-11
0.651371
0.183743
-1.07608e-11
0.604289
0.181688
-1.07658e-11
0.557686
0.179801
-1.08379e-11
0.511519
0.178076
-1.08783e-11
0.465751
0.176507
-1.0984e-11
0.420341
0.17509
-1.10611e-11
0.375252
0.173819
-1.12184e-11
0.330448
0.17269
-1.13543e-11
0.285893
0.171701
-1.16159e-11
0.241552
0.170849
-1.18583e-11
0.197391
0.17013
-1.22537e-11
0.153377
0.169543
-1.25048e-11
0.109475
0.169087
-1.28377e-11
0.0656534
0.168761
-1.39545e-11
0.0218796
0.168566
-1.79867e-11
-0.0218782
0.1685
-2.9778e-11
-0.065652
0.168566
-1.11428e-11
-0.109473
0.168761
-2.47042e-11
-0.153375
0.169087
-2.80167e-12
0.169543
-5.20888e-12
1.6748
2.58801
5.3422e-11
1.97112
2.54846
-1.11775e-11
2.26205
2.50098
-5.24735e-11
2.54555
2.4452
-1.09303e-10
2.81888
2.38071
-1.23464e-10
3.07855
2.30721
-7.23424e-11
3.32027
2.22457
1.03609e-11
3.53913
2.133
1.37053e-10
3.72993
2.03322
2.54708e-10
3.8877
1.92651
3.62469e-10
4.00835
1.81476
4.20082e-10
4.08947
1.7004
4.267e-10
4.13089
1.58615
3.82569e-10
4.13499
1.47469
2.94957e-10
4.1063
1.36831
1.96106e-10
4.05065
1.26862
9.0016e-11
3.97411
1.17654
1.10066e-11
3.8823
1.09233
-5.02704e-11
3.77998
1.01583
-7.5323e-11
3.67102
0.946606
-8.12532e-11
3.5584
0.884069
-6.39297e-11
3.44438
0.827598
-4.00188e-11
3.33059
0.776573
-1.08838e-11
3.21817
0.730411
1.32547e-11
3.1079
0.688581
3.25629e-11
3.00027
0.650609
4.37291e-11
2.89558
0.616073
4.92434e-11
2.794
0.584601
4.95356e-11
2.69559
0.555866
4.72868e-11
2.60032
0.529577
4.31307e-11
2.50816
0.505481
4.32973e-11
2.41899
0.483354
3.38505e-11
2.33272
0.462997
3.43583e-11
2.24922
0.444235
3.28948e-11
2.16837
0.426916
3.18e-11
2.09002
0.410901
3.13205e-11
2.01404
0.396072
3.12417e-11
1.94032
0.382319
2.94059e-11
1.86872
0.369549
3.14622e-11
1.79912
0.357677
3.19155e-11
1.73141
0.346627
2.96942e-11
1.66548
0.336332
2.98682e-11
1.60123
0.326732
2.92234e-11
1.53855
0.317773
2.8933e-11
1.47737
0.309405
2.81673e-11
1.41757
0.301586
2.77858e-11
1.3591
0.294277
2.70105e-11
1.30186
0.287441
2.66018e-11
1.24579
0.281046
2.58591e-11
1.1908
0.275064
2.54484e-11
1.13685
0.269469
2.47548e-11
1.08385
0.264236
2.43521e-11
1.03176
0.259343
2.37119e-11
0.980522
0.254772
2.33206e-11
0.930074
0.250503
2.27343e-11
0.880367
0.246521
2.23586e-11
0.831354
0.242811
2.18242e-11
0.782987
0.239359
2.14666e-11
0.735221
0.236153
2.09858e-11
0.688013
0.233181
2.06518e-11
0.641322
0.230434
2.02257e-11
0.595108
0.227902
1.99203e-11
0.549332
0.225577
1.9547e-11
0.503957
0.223451
1.9275e-11
0.458947
0.221517
1.89545e-11
0.414267
0.21977
1.87236e-11
0.369883
0.218203
1.84596e-11
0.325761
0.216813
1.82802e-11
0.281868
0.215594
1.80833e-11
0.238173
0.214543
1.79812e-11
0.194645
0.213658
1.79288e-11
0.151252
0.212936
1.80821e-11
0.107963
0.212376
1.85093e-11
0.0647483
0.211976
1.87677e-11
0.0215783
0.211736
1.78734e-11
-0.021577
0.211655
1.29744e-11
-0.064747
0.211736
2.27255e-11
-0.107961
0.211976
2.22193e-11
-0.15125
0.212376
3.39901e-11
0.212936
3.95194e-11
1.43755
2.33308
4.70447e-11
1.68726
2.29875
-2.9775e-12
1.93025
2.25799
-2.02195e-11
2.16472
2.21073
-6.54514e-11
2.38849
2.15693
-9.75307e-11
2.59905
2.09665
-1.03034e-10
2.79354
2.03008
-1.09434e-10
2.96894
1.95761
-1.00513e-10
3.12226
1.87989
-1.02384e-10
3.2509
1.79787
-1.02325e-10
3.35291
1.71275
-1.16479e-10
3.42738
1.62593
-1.36651e-10
3.4746
1.53894
-1.63151e-10
3.49608
1.45322
-1.92491e-10
3.49433
1.37005
-2.14756e-10
3.47251
1.29044
-2.3395e-10
3.43401
1.21504
-2.36305e-10
3.38211
1.14423
-2.3351e-10
3.31979
1.07815
-2.14965e-10
3.24963
1.01676
-1.95097e-10
3.1738
0.959902
-1.66846e-10
3.09405
0.907347
-1.42979e-10
3.0118
0.858831
-1.17708e-10
2.92813
0.814073
-9.97782e-11
2.84392
0.772793
-8.33436e-11
2.75981
0.734715
-7.34905e-11
2.67631
0.699579
-6.48949e-11
2.59377
0.66714
-5.68691e-11
2.51246
0.637171
-5.91191e-11
2.43258
0.60946
-5.13417e-11
2.35425
0.583814
-4.81818e-11
2.27755
0.560057
-4.51282e-11
2.20251
0.538029
-4.15649e-11
2.12917
0.517583
-3.8352e-11
2.0575
0.498586
-3.50019e-11
1.98748
0.480918
-3.19537e-11
1.91908
0.46447
-2.91842e-11
1.85226
0.449145
-2.66271e-11
1.78695
0.434853
-2.45608e-11
1.72312
0.421513
-2.27393e-11
1.66069
0.409052
-2.14303e-11
1.59962
0.397406
-1.9721e-11
1.53984
0.386512
-1.88745e-11
1.48129
0.376319
-1.78872e-11
1.42392
0.366775
-1.73091e-11
1.36767
0.357837
-1.65811e-11
1.31249
0.349464
-1.62086e-11
1.25831
0.341618
-1.56698e-11
1.20509
0.334266
-1.54414e-11
1.15278
0.327378
-1.50395e-11
1.10132
0.320924
-1.49044e-11
1.05067
0.314881
-1.46023e-11
1.00079
0.309224
-1.45269e-11
0.951634
0.303931
-1.42973e-11
0.903153
0.298985
-1.42594e-11
0.855308
0.294365
-1.40839e-11
0.808062
0.290058
-1.40597e-11
0.761374
0.286046
-1.39714e-11
0.715209
0.282318
-1.39651e-11
0.66953
0.27886
-1.3864e-11
0.624303
0.275661
-1.38701e-11
0.579494
0.272711
-1.38007e-11
0.535071
0.270001
-1.38186e-11
0.491
0.267521
-1.37722e-11
0.447251
0.265266
-1.38039e-11
0.403794
0.263227
-1.37791e-11
0.360599
0.261398
-1.38377e-11
0.317636
0.259775
-1.38502e-11
0.274877
0.258353
-1.39659e-11
0.232294
0.257127
-1.40334e-11
0.189859
0.256094
-1.42167e-11
0.147544
0.255251
-1.42735e-11
0.105322
0.254598
-1.44364e-11
0.0631672
0.254131
-1.50943e-11
0.0210517
0.253851
-1.76342e-11
-0.0210505
0.253758
-2.48685e-11
-0.063166
0.253851
-1.42113e-11
-0.105321
0.254131
-2.50863e-11
-0.147543
0.254598
-1.23323e-11
0.255251
-1.60751e-11
1.21134
2.11988
2.4539e-11
1.41907
2.09102
3.54355e-11
1.62006
2.057
3.56764e-11
1.81287
2.01792
5.93095e-11
1.99592
1.97388
4.22318e-11
2.1675
1.92507
2.26442e-11
2.32581
1.87177
8.52364e-13
2.46906
1.81436
-1.46153e-11
2.5956
1.75335
-3.20949e-11
2.70406
1.68941
-4.53615e-11
2.79352
1.62329
-5.87841e-11
2.8636
1.55585
-6.74752e-11
2.91456
1.48798
-7.12419e-11
2.94725
1.42052
-7.21252e-11
2.96305
1.35426
-6.75008e-11
2.96366
1.28982
-5.99392e-11
2.95099
1.22771
-4.7905e-11
2.92694
1.16828
-3.39957e-11
2.89336
1.11173
-1.75096e-11
2.85193
1.0582
-3.26445e-12
2.80415
1.00769
1.03103e-11
2.75131
0.960182
1.98847e-11
2.69454
0.915598
2.73593e-11
2.63479
0.873827
3.10669e-11
2.57284
0.834742
3.29798e-11
2.50935
0.798204
3.26098e-11
2.44486
0.764067
3.14489e-11
2.37982
0.732185
2.95817e-11
2.31458
0.702414
2.7768e-11
2.24942
0.674614
2.60999e-11
2.18458
0.64865
2.46002e-11
2.12025
0.624396
2.37229e-11
2.05654
0.60173
2.28325e-11
1.99359
0.580541
2.25724e-11
1.93145
0.560724
2.20202e-11
1.87018
0.54218
2.20261e-11
1.80983
0.524821
2.1553e-11
1.75042
0.508562
2.15878e-11
1.69194
0.493326
2.10641e-11
1.63441
0.479043
2.10293e-11
1.57782
0.465648
2.04315e-11
1.52214
0.453081
2.03264e-11
1.46737
0.441286
1.96948e-11
1.41347
0.430213
1.95365e-11
1.36043
0.419815
1.88953e-11
1.30822
0.410051
1.87081e-11
1.2568
0.40088
1.80847e-11
1.20615
0.392268
1.78825e-11
1.15624
0.38418
1.72911e-11
1.10703
0.376586
1.70824e-11
1.0585
0.36946
1.65266e-11
1.0106
0.362774
1.63229e-11
0.963322
0.356505
1.57894e-11
0.916621
0.350632
1.56394e-11
0.870471
0.345135
1.5022e-11
0.824841
0.339995
1.5362e-11
0.779702
0.335197
1.34738e-11
0.735025
0.330723
1.48994e-11
0.690781
0.326561
1.40572e-11
0.646943
0.322698
1.3693e-11
0.603483
0.319121
1.34189e-11
0.560374
0.31582
1.32634e-11
0.51759
0.312785
1.30045e-11
0.475104
0.310007
1.28648e-11
0.432892
0.307478
1.2649e-11
0.390927
0.305191
1.2553e-11
0.349186
0.30314
1.24266e-11
0.307643
0.301318
1.23617e-11
0.266274
0.299721
1.22335e-11
0.225056
0.298345
1.22143e-11
0.183965
0.297185
1.22859e-11
0.142977
0.296239
1.25032e-11
0.10207
0.295505
1.29175e-11
0.0612193
0.294981
1.34418e-11
0.020403
0.294667
1.39536e-11
-0.0204019
0.294563
1.38823e-11
-0.0612182
0.294667
1.49189e-11
-0.102069
0.294981
1.69449e-11
-0.142976
0.295505
1.85749e-11
0.296239
2.248e-11
1.01377
1.94224
-1.35114e-10
1.18639
1.91839
-1.26667e-10
1.35297
1.89043
-8.2467e-11
1.5124
1.85849
-6.02398e-11
1.66357
1.82271
-7.19258e-11
1.80532
1.78332
-9.04356e-11
1.93652
1.74057
-1.11947e-10
2.05609
1.69478
-1.29344e-10
2.16309
1.64636
-1.47168e-10
2.25676
1.59574
-1.5995e-10
2.33661
1.54343
-1.70586e-10
2.40247
1.48999
-1.75143e-10
2.45448
1.43597
-1.75542e-10
2.49311
1.38189
-1.70693e-10
2.51911
1.32827
-1.61727e-10
2.53341
1.27553
-1.49963e-10
2.53708
1.22404
-1.35667e-10
2.53127
1.17409
-1.21528e-10
2.51711
1.1259
-1.0677e-10
2.49568
1.07963
-9.44109e-11
2.46801
1.03536
-8.26469e-11
2.43503
0.993157
-7.40606e-11
2.3976
0.953029
-6.62259e-11
2.35646
0.914961
-6.1137e-11
2.31229
0.878915
-5.63314e-11
2.26566
0.844834
-5.33383e-11
2.21708
0.812651
-5.01354e-11
2.16698
0.782288
-4.79102e-11
2.11572
0.753666
-4.53025e-11
2.06364
0.726698
-4.31614e-11
2.01099
0.701299
-4.0749e-11
1.958
0.677386
-3.85693e-11
1.90486
0.654873
-3.63644e-11
1.85172
0.633682
-3.42767e-11
1.79871
0.613735
-3.23955e-11
1.74593
0.594958
-3.05463e-11
1.69347
0.57728
-2.90562e-11
1.6414
0.560637
-2.75097e-11
1.58976
0.544965
-2.63974e-11
1.53859
0.530206
-2.51447e-11
1.48794
0.516305
-2.43458e-11
1.43781
0.503212
-2.33397e-11
1.38821
0.490879
-2.27794e-11
1.33916
0.47926
-2.19708e-11
1.29066
0.468316
-2.15811e-11
1.24271
0.458007
-2.09239e-11
1.19529
0.448298
-2.0654e-11
1.1484
0.439156
-2.01155e-11
1.10203
0.430551
-1.99274e-11
1.05616
0.422453
-1.94819e-11
1.01079
0.414837
-1.93485e-11
0.965883
0.407678
-1.89766e-11
0.921435
0.400953
-1.88783e-11
0.877424
0.394643
-1.85639e-11
0.833832
0.388727
-1.8486e-11
0.79064
0.383187
-1.8219e-11
0.747829
0.378008
-1.81395e-11
0.705378
0.373174
-1.79601e-11
0.663268
0.368672
-1.78926e-11
0.621478
0.364487
-1.76696e-11
0.579989
0.36061
-1.76565e-11
0.538781
0.357028
-1.74495e-11
0.497834
0.353732
-1.73811e-11
0.457128
0.350713
-1.73823e-11
0.416643
0.347963
-1.71555e-11
0.37636
0.345475
-1.68307e-11
0.336258
0.343241
-1.76637e-11
0.296319
0.341258
-1.76719e-11
0.256522
0.339518
-1.66047e-11
0.216849
0.338018
-1.614e-11
0.177281
0.336754
-1.66706e-11
0.137797
0.335723
-1.70639e-11
0.0983796
0.334923
-1.71125e-11
0.0590091
0.334352
-1.7433e-11
0.0196669
0.33401
-1.8471e-11
-0.019666
0.333895
-2.06816e-11
-0.0590082
0.33401
-1.81519e-11
-0.0983786
0.334352
-2.5579e-11
-0.137796
0.334923
-2.27461e-11
0.335723
-2.71053e-11
0.848365
1.79383
-1.02021e-10
0.992466
1.77429
-7.56479e-11
1.13145
1.75145
-3.94339e-11
1.2645
1.72544
-8.1397e-13
1.3908
1.69641
-1.14536e-11
1.50958
1.66455
-2.96731e-11
1.62007
1.63008
-4.63379e-11
1.7216
1.59326
-5.73592e-11
1.81358
1.55437
-6.64068e-11
1.89557
1.51375
-7.11158e-11
1.96726
1.47174
-7.40833e-11
2.02855
1.42871
-7.27721e-11
2.07949
1.38502
-6.9737e-11
2.12034
1.34104
-6.32422e-11
2.1515
1.29711
-5.58308e-11
2.1735
1.25353
-4.65507e-11
2.18696
1.21057
-3.75637e-11
2.19257
1.16848
-2.83363e-11
2.19103
1.12744
-2.03672e-11
2.18306
1.0876
-1.31817e-11
2.16934
1.04907
-7.60074e-12
2.15055
1.01195
-3.04075e-12
2.1273
0.976277
1.18301e-13
2.10018
0.942087
2.56066e-12
2.0697
0.909391
4.0248e-12
2.03635
0.878181
5.24055e-12
2.00057
0.848437
5.82191e-12
1.96273
0.820129
6.53175e-12
1.92317
0.793218
6.76126e-12
1.88221
0.76766
7.33372e-12
1.8401
0.743407
7.42961e-12
1.79708
0.720406
7.96578e-12
1.75335
0.698606
7.96757e-12
1.70908
0.677953
8.45246e-12
1.66442
0.658394
8.349e-12
1.6195
0.639876
8.75348e-12
1.57444
0.622349
8.54484e-12
1.52931
0.605762
8.86267e-12
1.48421
0.590069
8.57032e-12
1.43919
0.575223
8.81228e-12
1.39431
0.561182
8.46699e-12
1.34962
0.547904
8.65012e-12
1.30515
0.535349
8.27965e-12
1.26093
0.52348
8.41846e-12
1.21698
0.512263
8.04324e-12
1.17332
0.501665
8.14677e-12
1.12997
0.491655
7.7796e-12
1.08692
0.482204
7.85355e-12
1.04419
0.473284
7.50301e-12
1.00177
0.464871
7.55171e-12
0.959666
0.45694
7.22297e-12
0.917873
0.44947
7.25104e-12
0.876387
0.44244
6.94893e-12
0.8352
0.43583
6.96007e-12
0.794304
0.429623
6.6881e-12
0.75369
0.423801
6.68889e-12
0.713348
0.418351
6.44945e-12
0.673266
0.413256
6.44408e-12
0.633433
0.408505
6.24018e-12
0.593836
0.404084
6.23633e-12
0.554463
0.399983
6.07136e-12
0.5153
0.396191
6.07138e-12
0.476334
0.392698
5.94731e-12
0.43755
0.389497
5.95588e-12
0.398935
0.386578
5.86965e-12
0.360474
0.383935
5.9021e-12
0.322153
0.381562
5.87994e-12
0.283958
0.379453
5.91348e-12
0.245873
0.377602
5.89997e-12
0.207884
0.376006
6.01007e-12
0.169977
0.374661
6.2049e-12
0.132135
0.373564
6.47197e-12
0.0943458
0.372712
6.8296e-12
0.0565929
0.372105
7.49044e-12
0.0188621
0.37174
9.04235e-12
-0.0188613
0.371619
1.28504e-11
-0.0565921
0.37174
7.33125e-12
-0.0943449
0.372105
1.11847e-11
-0.132135
0.372712
5.00994e-12
0.373564
6.93708e-12
0.71225
1.66921
-1.13746e-10
0.8333
1.65324
-9.54162e-11
0.950156
1.63459
-5.07377e-11
1.0622
1.61339
-2.07366e-11
1.16884
1.58977
-3.13337e-11
1.26951
1.56387
-4.73146e-11
1.3637
1.53589
-6.044e-11
1.45093
1.50602
-6.79508e-11
1.53082
1.47448
-7.38464e-11
1.60306
1.4415
-7.63556e-11
1.66747
1.40734
-7.84324e-11
1.72393
1.37225
-7.76656e-11
1.77247
1.33648
-7.67661e-11
1.81321
1.3003
-7.35994e-11
1.84637
1.26394
-7.0685e-11
1.87226
1.22764
-6.63164e-11
1.89124
1.19159
-6.26071e-11
1.90373
1.15599
-5.82208e-11
1.91018
1.12099
-5.47258e-11
1.91106
1.08672
-5.10602e-11
1.90684
1.0533
-4.82719e-11
1.89798
1.02081
-4.54992e-11
1.88494
0.98932
-4.34226e-11
1.86814
0.958886
-4.13342e-11
1.84799
0.929538
-3.97395e-11
1.82488
0.901297
-3.80327e-11
1.79914
0.874171
-3.66961e-11
1.77111
0.848157
-3.51604e-11
1.74109
0.823245
-3.39693e-11
1.70933
0.799418
-3.25245e-11
1.67608
0.776653
-3.14622e-11
1.64157
0.754925
-3.01113e-11
1.60597
0.734202
-2.91994e-11
1.56947
0.714454
-2.79673e-11
1.53222
0.695646
-2.72211e-11
1.49435
0.677744
-2.61231e-11
1.45598
0.660713
-2.55382e-11
1.41723
0.644518
-2.45729e-11
1.37817
0.629125
-2.41284e-11
1.33889
0.614501
-2.32835e-11
1.29946
0.600612
-2.29525e-11
1.25994
0.587426
-2.22132e-11
1.22038
0.574913
-2.1969e-11
1.18082
0.563043
-2.13213e-11
1.14129
0.551788
-2.11423e-11
1.10184
0.541121
-2.0575e-11
1.06248
0.531016
-2.04432e-11
1.02323
0.521449
-1.99462e-11
0.984118
0.512396
-1.98478e-11
0.945151
0.503837
-1.94126e-11
0.906341
0.495751
-1.9336e-11
0.867693
0.488117
-1.89542e-11
0.829215
0.480918
-1.88907e-11
0.790907
0.474138
-1.85555e-11
0.752771
0.467758
-1.84982e-11
0.714806
0.461766
-1.82025e-11
0.677011
0.456146
-1.81469e-11
0.639381
0.450886
-1.78857e-11
0.601912
0.445974
-1.7829e-11
0.564599
0.441397
-1.75978e-11
0.527435
0.437147
-1.75399e-11
0.490413
0.433213
-1.73361e-11
0.453526
0.429586
-1.72789e-11
0.416765
0.426258
-1.71032e-11
0.380121
0.423222
-1.70499e-11
0.343586
0.420471
-1.69008e-11
0.30715
0.417999
-1.68583e-11
0.270803
0.4158
-1.6741e-11
0.234534
0.413871
-1.67134e-11
0.198335
0.412206
-1.6621e-11
0.162194
0.410802
-1.66256e-11
0.126102
0.409657
-1.66079e-11
0.090046
0.408768
-1.67927e-11
0.0540171
0.408134
-1.69045e-11
0.0180042
0.407753
-1.6698e-11
-0.0180034
0.407626
-1.47859e-11
-0.0540164
0.407753
-1.9134e-11
-0.0900453
0.408134
-2.28764e-11
-0.126101
0.408768
-2.81086e-11
0.409657
-3.26104e-11
0.600782
1.56397
-7.81476e-11
0.70313
1.55089
-6.01043e-11
0.802094
1.53563
-2.1709e-11
0.897202
1.51828
6.44293e-12
0.988005
1.49896
-4.01181e-12
1.07408
1.4778
-1.80625e-11
1.15506
1.45492
-2.78665e-11
1.2306
1.43049
-3.20721e-11
1.30042
1.40466
-3.45355e-11
1.3643
1.37762
-3.44905e-11
1.42209
1.34955
-3.44846e-11
1.4737
1.32064
-3.27112e-11
1.51911
1.29107
-3.14467e-11
1.55839
1.26102
-2.87391e-11
1.59165
1.23069
-2.68088e-11
1.61905
1.20023
-2.3754e-11
1.64084
1.16981
-2.16577e-11
1.65725
1.13958
-1.87195e-11
1.66858
1.10965
-1.68147e-11
1.67515
1.08015
-1.42569e-11
1.67726
1.05118
-1.27083e-11
1.67525
1.02282
-1.05925e-11
1.66944
0.995133
-9.40376e-12
1.66014
0.968184
-7.66577e-12
1.64767
0.942015
-6.76925e-12
1.63231
0.916659
-5.31298e-12
1.61434
0.892139
-4.63832e-12
1.59403
0.868469
-3.39102e-12
1.57161
0.845656
-2.89582e-12
1.54733
0.823701
-1.81859e-12
1.52139
0.802599
-1.48049e-12
1.49397
0.782339
-5.53378e-13
1.46526
0.76291
-3.54844e-13
1.43542
0.744295
4.3923e-13
1.40459
0.726474
5.19484e-13
1.37291
0.709428
1.19748e-12
1.34049
0.693135
1.1848e-12
1.30743
0.677572
1.76653e-12
1.27384
0.662716
1.68649e-12
1.2398
0.648543
2.18807e-12
1.20538
0.63503
2.06289e-12
1.17065
0.622154
2.49723e-12
1.13568
0.609891
2.34413e-12
1.1005
0.598219
2.72063e-12
1.06517
0.587117
2.55237e-12
1.02973
0.576563
2.87755e-12
0.994207
0.566536
2.70316e-12
0.958638
0.557018
2.98189e-12
0.923046
0.547988
2.80937e-12
0.887454
0.53943
3.04697e-12
0.851879
0.531325
2.88206e-12
0.816338
0.523658
3.08421e-12
0.780843
0.516413
2.93231e-12
0.745405
0.509576
3.10389e-12
0.710031
0.503132
2.96976e-12
0.674729
0.497068
3.11691e-12
0.639503
0.491372
3.00407e-12
0.604356
0.486034
3.13174e-12
0.569289
0.481041
3.04289e-12
0.534303
0.476383
3.15582e-12
0.499397
0.472052
3.09251e-12
0.46457
0.468039
3.19402e-12
0.42982
0.464336
3.15733e-12
0.395143
0.460935
3.25121e-12
0.360535
0.457829
3.2427e-12
0.325992
0.455013
3.33529e-12
0.29151
0.452481
3.3642e-12
0.257082
0.450228
3.47418e-12
0.222703
0.448249
3.57226e-12
0.188367
0.446542
3.7404e-12
0.154068
0.445101
3.94636e-12
0.119799
0.443926
4.16196e-12
0.0855538
0.443013
4.41778e-12
0.0513256
0.442362
5.07784e-12
0.0171076
0.441971
7.18917e-12
-0.017107
0.441841
1.32262e-11
-0.051325
0.441971
3.88916e-12
-0.0855532
0.442362
8.97142e-12
-0.119798
0.443013
-2.07038e-12
0.443926
-1.0584e-12
0.509395
1.47458
-5.72722e-11
0.596461
1.46383
-4.33429e-11
0.680814
1.45128
-7.9738e-12
0.762086
1.43701
1.50017e-11
0.83993
1.42112
4.73479e-12
0.914027
1.4037
-8.02767e-12
0.984087
1.38486
-1.67257e-11
1.04986
1.36472
-2.03356e-11
1.11112
1.3434
-2.27607e-11
1.1677
1.32104
-2.31642e-11
1.21948
1.29777
-2.41478e-11
1.26638
1.27374
-2.37628e-11
1.30836
1.24909
-2.43103e-11
1.34543
1.22395
-2.36275e-11
1.37767
1.19846
-2.39569e-11
1.40515
1.17275
-2.31501e-11
1.42802
1.14694
-2.33489e-11
1.44643
1.12116
-2.25076e-11
1.46058
1.0955
-2.26202e-11
1.47067
1.07007
-2.17832e-11
1.47691
1.04494
-2.18248e-11
1.47953
1.0202
-2.09962e-11
1.47876
0.995901
-2.09701e-11