/*--------------------------------*- C++ -*----------------------------------*\
| =========                 |                                                 |
| \\      /  F ield         | OpenFOAM: The Open Source CFD Toolbox           |
|  \\    /   O peration     | Version:  2306                                  |
|   \\  /    A nd           | Website:  www.openfoam.com                      |
|    \\/     M anipulation  |                                                 |
\*---------------------------------------------------------------------------*/
FoamFile
{
    version     2.0;
    format      ascii;
    arch        "LSB;label=32;scalar=64";
    class       volVectorField;
    location    "62.5";
    object      U;
}
// * * * * * * * * * * * * * * * * * * * * * * * * * * * * * * * * * * * * * //

dimensions      [0 1 -1 0 0 0 0];

internalField   nonuniform List<vector> 
14400
(
(0.0478066 0.49593 7.03863e-10)
(0.0583341 0.495961 3.06033e-10)
(0.0693551 0.49618 -1.78765e-10)
(0.080947 0.496683 -4.45165e-10)
(0.0932103 0.497522 -8.22297e-10)
(0.106233 0.498456 -1.03318e-09)
(0.119963 0.498238 -1.51114e-09)
(0.135471 0.49224 -1.04501e-09)
(0.162106 0.463743 -2.21997e-09)
(0.209472 0.35739 -4.18873e-10)
(0.238454 0.0248952 -8.41225e-10)
(0.121434 0.000989155 -3.08503e-10)
(0.111662 0.0230074 -2.29879e-10)
(0.0922771 0.0226977 -1.4068e-10)
(0.0747069 0.015682 -7.20967e-11)
(0.0614944 0.00836446 -3.83675e-11)
(0.0522492 0.0037357 -1.00986e-11)
(0.0461518 0.00125081 2.43898e-12)
(0.0420081 -6.27248e-05 1.24642e-11)
(0.0390596 -0.000712986 1.46559e-11)
(0.0368857 -0.000986444 1.51393e-11)
(0.0352082 -0.00105408 1.22353e-11)
(0.0338395 -0.00101525 8.90786e-12)
(0.03266 -0.000926382 5.52943e-12)
(0.0315964 -0.000818863 2.57301e-12)
(0.0306047 -0.000709483 7.14491e-13)
(0.0296591 -0.000606595 -7.12359e-13)
(0.0287452 -0.000513797 -1.18778e-12)
(0.027855 -0.000432118 -1.59073e-12)
(0.0269843 -0.000361272 -1.47322e-12)
(0.0261311 -0.000300363 -1.51103e-12)
(0.0252945 -0.000248274 -1.31566e-12)
(0.0244743 -0.000203858 -1.3316e-12)
(0.0236703 -0.000166036 -1.22965e-12)
(0.0228826 -0.00013384 -1.30007e-12)
(0.0221112 -0.000106421 -1.28496e-12)
(0.021356 -8.3048e-05 -1.38451e-12)
(0.0206169 -6.30984e-05 -1.41128e-12)
(0.0198936 -4.60445e-05 -1.50811e-12)
(0.0191858 -3.14413e-05 -1.5464e-12)
(0.0184931 -1.89146e-05 -1.62645e-12)
(0.017815 -8.14998e-06 -1.66411e-12)
(0.0171512 1.11685e-06 -1.72621e-12)
(0.016501 9.10792e-06 -1.76049e-12)
(0.015864 1.60101e-05 -1.80795e-12)
(0.0152396 2.1981e-05 -1.83884e-12)
(0.0146272 2.71536e-05 -1.87506e-12)
(0.0140264 3.16404e-05 -1.90273e-12)
(0.0134366 3.5537e-05 -1.93007e-12)
(0.0128572 3.89246e-05 -1.95456e-12)
(0.0122878 4.18722e-05 -1.97456e-12)
(0.0117278 4.4439e-05 -1.99604e-12)
(0.0111767 4.66755e-05 -2.00985e-12)
(0.010634 4.86251e-05 -2.02885e-12)
(0.0100992 5.0325e-05 -2.03754e-12)
(0.009572 5.18072e-05 -2.05505e-12)
(0.00905181 5.30995e-05 -2.05973e-12)
(0.00853824 5.42256e-05 -2.07711e-12)
(0.00803087 5.5206e-05 -2.07891e-12)
(0.00752928 5.60585e-05 -2.09787e-12)
(0.00703309 5.67982e-05 -2.09795e-12)
(0.00654191 5.7438e-05 -2.12045e-12)
(0.00605537 5.79888e-05 -2.12004e-12)
(0.0055731 5.84596e-05 -2.1483e-12)
(0.00509476 5.88578e-05 -2.14871e-12)
(0.00462001 5.9189e-05 -2.18541e-12)
(0.0041485 5.94571e-05 -2.18863e-12)
(0.00367992 5.96646e-05 -2.23727e-12)
(0.00321396 5.98124e-05 -2.24733e-12)
(0.00275031 5.99006e-05 -2.31236e-12)
(0.00228866 5.99285e-05 -2.33657e-12)
(0.00182872 5.9897e-05 -2.42222e-12)
(0.00137019 5.98099e-05 -2.45756e-12)
(0.000912786 5.96788e-05 -2.55858e-12)
(0.000456193 5.9533e-05 -2.59799e-12)
(2.50246e-09 5.94617e-05 -2.64293e-12)
(-0.000456188 5.95327e-05 -2.96194e-12)
(-0.00091278 5.96781e-05 -7.45464e-13)
(-0.00137019 5.98089e-05 -7.63921e-12)
(-0.00182871 5.98956e-05 -3.46462e-13)
(0.0811779 0.449553 4.28343e-10)
(0.0989671 0.446804 1.66879e-10)
(0.117762 0.443319 -1.4882e-10)
(0.137908 0.438869 -3.29497e-10)
(0.159875 0.433073 -5.88378e-10)
(0.18426 0.425257 -7.7505e-10)
(0.211751 0.414156 -9.98699e-10)
(0.243279 0.397388 -1.09103e-09)
(0.279807 0.370742 -1.00193e-09)
(0.312617 0.327301 -9.51216e-10)
(0.305273 0.263548 -6.50005e-10)
(0.26456 0.197525 -3.9819e-10)
(0.229946 0.135361 -2.40975e-10)
(0.203863 0.0937534 -1.38408e-10)
(0.183492 0.0677842 -6.57638e-11)
(0.166807 0.0500046 -3.47241e-11)
(0.152691 0.0367142 -3.91315e-12)
(0.140824 0.0268372 6.50021e-12)
(0.130981 0.0198126 1.77383e-11)
(0.12272 0.0149789 1.85591e-11)
(0.11565 0.0117258 1.81959e-11)
(0.109493 0.00956669 1.46732e-11)
(0.104044 0.0081402 1.0244e-11)
(0.0991474 0.00719141 6.75089e-12)
(0.09469 0.00654755 3.05961e-12)
(0.0905881 0.00609543 1.32164e-12)
(0.08678 0.00576287 -4.90139e-13)
(0.0832196 0.0055048 -7.78941e-13)
(0.0798717 0.00529346 -1.39497e-12)
(0.0767088 0.00511197 -1.10971e-12)
(0.0737091 0.00495008 -1.30674e-12)
(0.0708548 0.00480166 -9.86459e-13)
(0.0681311 0.00466302 -1.14615e-12)
(0.0655256 0.00453199 -9.57454e-13)
(0.0630279 0.00440731 -1.15707e-12)
(0.0606287 0.00428823 -1.08168e-12)
(0.0583201 0.00417432 -1.29005e-12)
(0.056095 0.00406534 -1.27382e-12)
(0.053947 0.00396112 -1.4572e-12)
(0.0518705 0.00386155 -1.46443e-12)
(0.0498604 0.00376652 -1.61082e-12)
(0.0479121 0.00367593 -1.62648e-12)
(0.0460213 0.00358969 -1.73833e-12)
(0.0441841 0.00350768 -1.75775e-12)
(0.042397 0.00342977 -1.84195e-12)
(0.0406566 0.00335584 -1.86359e-12)
(0.0389599 0.00328576 -1.92651e-12)
(0.037304 0.0032194 -1.94916e-12)
(0.0356864 0.00315661 -1.99549e-12)
(0.0341045 0.00309726 -2.01798e-12)
(0.032556 0.00304122 -2.05116e-12)
(0.0310389 0.00298836 -2.0726e-12)
(0.029551 0.00293856 -2.09535e-12)
(0.0280905 0.00289169 -2.1154e-12)
(0.0266555 0.00284764 -2.13013e-12)
(0.0252444 0.00280631 -2.14902e-12)
(0.0238556 0.00276758 -2.15806e-12)
(0.0224875 0.00273136 -2.1765e-12)
(0.0211386 0.00269756 -2.18207e-12)
(0.0198076 0.00266608 -2.20118e-12)
(0.0184932 0.00263686 -2.20543e-12)
(0.0171941 0.00260981 -2.22663e-12)
(0.0159091 0.00258486 -2.2317e-12)
(0.014637 0.00256195 -2.25665e-12)
(0.0133767 0.00254101 -2.26466e-12)
(0.0121271 0.00252198 -2.29542e-12)
(0.0108871 0.00250481 -2.30891e-12)
(0.00965583 0.00248946 -2.34814e-12)
(0.00843215 0.00247587 -2.37095e-12)
(0.00721514 0.002464 -2.42205e-12)
(0.00600383 0.00245383 -2.45982e-12)
(0.00479729 0.00244534 -2.52607e-12)
(0.00359458 0.00243855 -2.57545e-12)
(0.00239477 0.00243349 -2.64839e-12)
(0.001197 0.00243029 -2.70848e-12)
(2.38259e-08 0.00242917 -2.74458e-12)
(-0.00119695 0.00243029 -3.00606e-12)
(-0.00239473 0.00243349 -1.43561e-12)
(-0.00359453 0.00243854 -6.29768e-12)
(-0.00479724 0.00244534 -2.13176e-12)
(0.0795579 0.401702 8.34646e-11)
(0.0961195 0.397441 3.34432e-11)
(0.113055 0.391992 -4.69858e-11)
(0.13043 0.385028 -7.98499e-11)
(0.148297 0.376084 -1.47628e-10)
(0.166665 0.364523 -1.78734e-10)
(0.185427 0.349518 -2.35563e-10)
(0.204241 0.330162 -2.46002e-10)
(0.222219 0.305863 -2.55513e-10)
(0.237054 0.276668 -2.23342e-10)
(0.244779 0.242869 -1.84514e-10)
(0.244616 0.20736 -1.4066e-10)
(0.238982 0.171939 -9.39638e-11)
(0.229585 0.139267 -6.37202e-11)
(0.21828 0.111213 -2.90463e-11)
(0.206719 0.0886579 -1.57469e-11)
(0.195526 0.0710827 3.28221e-12)
(0.184882 0.057553 7.89363e-12)
(0.174899 0.0472692 1.44639e-11)
(0.165622 0.0395496 1.34172e-11)
(0.157036 0.033791 1.217e-11)
(0.149109 0.0294853 9.00388e-12)
(0.141793 0.0262305 5.5391e-12)
(0.135035 0.023725 3.02686e-12)
(0.128777 0.0217514 4.89757e-13)
(0.122966 0.0201573 -5.3442e-13)
(0.117551 0.0188374 -1.63685e-12)
(0.112489 0.0177198 -1.64308e-12)
(0.10774 0.0167549 -1.93402e-12)
(0.103271 0.0159083 -1.59674e-12)
(0.0990511 0.0151556 -1.66371e-12)
(0.0950552 0.0144794 -1.36277e-12)
(0.0912608 0.0138668 -1.45735e-12)
(0.0876484 0.0133079 -1.28609e-12)
(0.0842009 0.0127954 -1.43637e-12)
(0.0809034 0.0123234 -1.36222e-12)
(0.0777426 0.0118871 -1.52791e-12)
(0.0747069 0.0114827 -1.50211e-12)
(0.0717859 0.011107 -1.65071e-12)
(0.0689705 0.0107574 -1.64415e-12)
(0.0662524 0.0104314 -1.7643e-12)
(0.0636241 0.0101272 -1.76542e-12)
(0.0610789 0.00984299 -1.85835e-12)
(0.0586108 0.0095772 -1.86375e-12)
(0.0562142 0.00932849 -1.93458e-12)
(0.0538839 0.00909565 -1.94305e-12)
(0.0516155 0.00887757 -1.99653e-12)
(0.0494046 0.00867327 -2.00707e-12)
(0.0472473 0.00848187 -2.04671e-12)
(0.0451399 0.00830253 -2.05825e-12)
(0.0430792 0.00813455 -2.08674e-12)
(0.0410619 0.00797723 -2.09851e-12)
(0.039085 0.00782997 -2.11805e-12)
(0.037146 0.0076922 -2.1297e-12)
(0.0352422 0.00756343 -2.14241e-12)
(0.0333712 0.00744318 -2.15411e-12)
(0.0315306 0.00733102 -2.16206e-12)
(0.0297185 0.00722656 -2.17436e-12)
(0.0279327 0.00712945 -2.17967e-12)
(0.0261713 0.00703935 -2.19346e-12)
(0.0244324 0.00695598 -2.19822e-12)
(0.0227143 0.00687905 -2.21464e-12)
(0.0210154 0.00680832 -2.22095e-12)
(0.019334 0.00674355 -2.24135e-12)
(0.0176685 0.00668455 -2.25143e-12)
(0.0160175 0.00663113 -2.2775e-12)
(0.0143794 0.00658313 -2.29401e-12)
(0.012753 0.00654038 -2.32797e-12)
(0.0111368 0.00650277 -2.35522e-12)
(0.00952956 0.00647019 -2.39975e-12)
(0.00792984 0.00644255 -2.44441e-12)
(0.00633641 0.00641981 -2.50253e-12)
(0.00474797 0.00640195 -2.55986e-12)
(0.00316328 0.00638902 -2.62813e-12)
(0.0015812 0.00638111 -2.68955e-12)
(2.86691e-08 0.00637842 -2.71257e-12)
(-0.00158115 0.00638111 -3.07871e-12)
(-0.00316322 0.00638902 -1.00619e-12)
(-0.00474791 0.00640195 -7.42328e-12)
(-0.00633635 0.00641981 -8.99398e-13)
(0.0747195 0.360995 4.19794e-12)
(0.0899035 0.35632 -5.13604e-12)
(0.105189 0.350478 -2.28156e-11)
(0.120547 0.343246 -3.01775e-11)
(0.1359 0.33434 -4.90274e-11)
(0.151105 0.323417 -5.61195e-11)
(0.165909 0.310105 -7.30867e-11)
(0.17991 0.294079 -7.49152e-11)
(0.192561 0.275177 -7.98406e-11)
(0.203204 0.253473 -7.3376e-11)
(0.211117 0.229348 -6.42001e-11)
(0.215781 0.20376 -5.2143e-11)
(0.217079 0.177866 -3.43445e-11)
(0.215259 0.15308 -2.34407e-11)
(0.210935 0.130603 -6.77038e-12)
(0.204833 0.111196 -4.06767e-13)
(0.197623 0.0950475 9.63946e-12)
(0.189821 0.0818919 1.13238e-11)
(0.181787 0.071281 1.39314e-11)
(0.173777 0.0627529 1.22813e-11)
(0.165965 0.0558877 1.05482e-11)
(0.15846 0.0503249 7.98921e-12)
(0.151323 0.04577 5.42105e-12)
(0.144574 0.0419921 3.60241e-12)
(0.138213 0.0388152 1.90463e-12)
(0.132226 0.0361073 1.14122e-12)
(0.126588 0.0337703 3.8757e-13)
(0.121274 0.0317309 2.98783e-13)
(0.116258 0.0299341 5.61614e-14)
(0.111515 0.0283377 1.79347e-13)
(0.107019 0.0269093 4.81316e-14)
(0.102748 0.0256232 1.44502e-13)
(0.0986842 0.0244591 -1.44186e-14)
(0.0948078 0.0234005 8.63588e-15)
(0.091103 0.0224338 -1.81547e-13)
(0.0875552 0.021548 -2.06659e-13)
(0.0841515 0.0207338 -3.92814e-13)
(0.08088 0.0199833 -4.34184e-13)
(0.0777302 0.01929 -5.94446e-13)
(0.0746927 0.0186481 -6.36066e-13)
(0.0717588 0.0180527 -7.65034e-13)
(0.0689208 0.0174996 -8.02596e-13)
(0.0661716 0.0169851 -9.03592e-13)
(0.0635048 0.0165059 -9.37416e-13)
(0.0609146 0.0160592 -1.01591e-12)
(0.0583955 0.0156425 -1.04698e-12)
(0.0559426 0.0152533 -1.10771e-12)
(0.0535514 0.0148898 -1.13649e-12)
(0.0512176 0.0145502 -1.18297e-12)
(0.0489375 0.0142327 -1.20956e-12)
(0.0467073 0.013936 -1.24452e-12)
(0.0445237 0.0136586 -1.26898e-12)
(0.0423835 0.0133995 -1.2947e-12)
(0.0402839 0.0131575 -1.31729e-12)
(0.0382221 0.0129317 -1.3359e-12)
(0.0361954 0.0127211 -1.3571e-12)
(0.0342014 0.012525 -1.37066e-12)
(0.0322379 0.0123425 -1.39123e-12)
(0.0303027 0.0121731 -1.40175e-12)
(0.0283935 0.0120161 -1.4226e-12)
(0.0265086 0.011871 -1.43204e-12)
(0.024646 0.0117373 -1.45417e-12)
(0.0228038 0.0116144 -1.46447e-12)
(0.0209804 0.0115021 -1.48904e-12)
(0.0191741 0.0113999 -1.50216e-12)
(0.0173832 0.0113074 -1.53043e-12)
(0.0156063 0.0112245 -1.5483e-12)
(0.0138417 0.0111508 -1.58163e-12)
(0.0120881 0.0110861 -1.6062e-12)
(0.0103439 0.0110302 -1.64561e-12)
(0.0086078 0.010983 -1.67776e-12)
(0.00687835 0.0109443 -1.72262e-12)
(0.00515418 0.0109142 -1.7553e-12)
(0.00343398 0.0108926 -1.79376e-12)
(0.00171655 0.0108795 -1.82644e-12)
(2.86905e-08 0.0108751 -1.83764e-12)
(-0.00171649 0.0108795 -1.99513e-12)
(-0.00343392 0.0108925 -1.04051e-12)
(-0.00515412 0.0109142 -3.97146e-12)
(-0.00687829 0.0109443 -1.90503e-12)
(0.0682806 0.323152 -7.58149e-13)
(0.0818842 0.318406 -7.50143e-12)
(0.0954183 0.312583 -1.41228e-11)
(0.108822 0.305549 -1.8613e-11)
(0.121998 0.297144 -2.71777e-11)
(0.134803 0.287199 -3.13904e-11)
(0.147035 0.275557 -3.88015e-11)
(0.158423 0.26212 -4.07566e-11)
(0.168646 0.246905 -4.28543e-11)
(0.177355 0.230076 -4.09946e-11)
(0.184209 0.211971 -3.61747e-11)
(0.188933 0.193131 -3.1461e-11)
(0.191381 0.174249 -2.23257e-11)
(0.191589 0.156089 -1.71285e-11)
(0.189798 0.139293 -8.29597e-12)
(0.186379 0.124253 -4.76282e-12)
(0.18176 0.11109 4.58315e-13)
(0.176335 0.099727 1.65774e-12)
(0.170428 0.0899919 2.97985e-12)
(0.164285 0.0816749 2.53443e-12)
(0.158086 0.0745637 1.75005e-12)
(0.151958 0.0684616 9.08664e-13)
(0.145981 0.0631968 -1.95981e-13)
(0.140203 0.0586253 -6.60935e-13)
(0.134651 0.054629 -1.3091e-12)
(0.129335 0.0511128 -1.30443e-12)
(0.124255 0.0479999 -1.52139e-12)
(0.119403 0.0452284 -1.2782e-12)
(0.114771 0.0427482 -1.32193e-12)
(0.110346 0.0405181 -1.06425e-12)
(0.106116 0.0385045 -1.11306e-12)
(0.102067 0.0366792 -9.35075e-13)
(0.0981887 0.0350186 -1.03476e-12)
(0.0944678 0.033503 -9.38309e-13)
(0.0908935 0.0321156 -1.06789e-12)
(0.0874553 0.0308421 -1.02157e-12)
(0.0841435 0.0296703 -1.15134e-12)
(0.0809492 0.0285896 -1.12972e-12)
(0.0778642 0.0275909 -1.24309e-12)
(0.0748806 0.0266664 -1.23298e-12)
(0.0719915 0.0258091 -1.32484e-12)
(0.0691905 0.025013 -1.32074e-12)
(0.0664715 0.0242728 -1.39333e-12)
(0.063829 0.0235837 -1.39391e-12)
(0.0612578 0.0229417 -1.45058e-12)
(0.0587533 0.022343 -1.45477e-12)
(0.056311 0.0217843 -1.4985e-12)
(0.053927 0.0212627 -1.50529e-12)
(0.0515973 0.0207756 -1.53848e-12)
(0.0493184 0.0203205 -1.547e-12)
(0.0470871 0.0198953 -1.5716e-12)
(0.0449002 0.0194981 -1.58121e-12)
(0.0427549 0.0191272 -1.599e-12)
(0.0406483 0.0187809 -1.60949e-12)
(0.038578 0.0184578 -1.62226e-12)
(0.0365414 0.0181567 -1.63373e-12)
(0.0345363 0.0178763 -1.64322e-12)
(0.0325606 0.0176156 -1.65614e-12)
(0.030612 0.0173735 -1.66413e-12)
(0.0286887 0.0171494 -1.67918e-12)
(0.0267888 0.0169422 -1.68744e-12)
(0.0249105 0.0167513 -1.70548e-12)
(0.0230519 0.0165761 -1.7158e-12)
(0.0212116 0.0164159 -1.7379e-12)
(0.0193877 0.0162702 -1.7522e-12)
(0.0175789 0.0161385 -1.7797e-12)
(0.0157835 0.0160204 -1.80027e-12)
(0.0140002 0.0159156 -1.83485e-12)
(0.0122274 0.0158237 -1.86505e-12)
(0.0104639 0.0157444 -1.90848e-12)
(0.00870812 0.0156776 -1.9529e-12)
(0.00695882 0.015623 -2.00669e-12)
(0.00521466 0.0155805 -2.05866e-12)
(0.00347435 0.0155501 -2.12031e-12)
(0.00173675 0.0155319 -2.16667e-12)
(2.78291e-08 0.0155258 -2.18772e-12)
(-0.0017367 0.0155319 -2.52459e-12)
(-0.00347429 0.0155501 -6.17652e-13)
(-0.00521461 0.0155805 -6.48851e-12)
(-0.00695877 0.0156229 -2.38551e-13)
(0.0605397 0.288656 -2.0204e-12)
(0.0723887 0.284205 -4.8561e-12)
(0.0840588 0.278831 -6.88024e-12)
(0.0954805 0.27247 -8.26924e-12)
(0.10656 0.265056 -1.16371e-11)
(0.117175 0.256527 -1.27392e-11)
(0.12717 0.246844 -1.52692e-11)
(0.13636 0.236015 -1.52436e-11)
(0.144541 0.224114 -1.51861e-11)
(0.151504 0.211299 -1.36131e-11)
(0.157062 0.197815 -1.06197e-11)
(0.161079 0.183991 -8.09504e-12)
(0.163498 0.170197 -3.62412e-12)
(0.164365 0.156804 -1.31457e-12)
(0.163824 0.144121 2.49688e-12)
(0.162091 0.132364 3.68257e-12)
(0.159409 0.12164 5.5751e-12)
(0.156017 0.111968 5.53246e-12)
(0.152122 0.103306 5.67703e-12)
(0.147896 0.0955774 4.95132e-12)
(0.143474 0.0886917 4.28819e-12)
(0.138958 0.0825538 3.52347e-12)
(0.134424 0.0770739 2.83883e-12)
(0.129926 0.0721702 2.36128e-12)
(0.125501 0.0677706 1.93875e-12)
(0.121174 0.0638123 1.74329e-12)
(0.116959 0.0602409 1.52512e-12)
(0.112865 0.0570098 1.47179e-12)
(0.108896 0.0540786 1.32491e-12)
(0.105053 0.0514125 1.29638e-12)
(0.101335 0.0489815 1.13941e-12)
(0.0977379 0.0467594 1.10847e-12)
(0.094258 0.0447236 9.32751e-13)
(0.0908906 0.0428545 8.68835e-13)
(0.0876306 0.0411347 6.97182e-13)
(0.0844728 0.0395494 6.32263e-13)
(0.0814119 0.0380853 4.78019e-13)
(0.0784428 0.0367308 4.1896e-13)
(0.0755604 0.0354758 2.82179e-13)
(0.0727598 0.0343113 2.24353e-13)
(0.0700364 0.0332294 1.18195e-13)
(0.0673857 0.032223 7.4052e-14)
(0.0648036 0.0312859 -1.31485e-14)
(0.062286 0.0304124 -5.44988e-14)
(0.0598291 0.0295977 -1.25413e-13)
(0.0574294 0.0288371 -1.63317e-13)
(0.0550835 0.0281268 -2.205e-13)
(0.0527882 0.0274632 -2.5542e-13)
(0.0505405 0.0268429 -3.01229e-13)
(0.0483375 0.026263 -3.33546e-13)
(0.0461765 0.025721 -3.70003e-13)
(0.044055 0.0252144 -4.00097e-13)
(0.0419705 0.024741 -4.29046e-13)
(0.0399207 0.0242989 -4.57309e-13)
(0.0379034 0.0238864 -4.80455e-13)
(0.0359166 0.0235017 -5.07414e-13)
(0.0339582 0.0231434 -5.2644e-13)
(0.0320264 0.0228101 -5.52726e-13)
(0.0301193 0.0225007 -5.69216e-13)
(0.0282352 0.022214 -5.95525e-13)
(0.0263724 0.0219491 -6.10982e-13)
(0.0245293 0.0217049 -6.38046e-13)
(0.0227044 0.0214808 -6.53946e-13)
(0.0208961 0.0212758 -6.82513e-13)
(0.019103 0.0210895 -7.00271e-13)
(0.0173236 0.0209211 -7.31186e-13)
(0.0155567 0.0207701 -7.52042e-13)
(0.0138009 0.0206361 -7.86001e-13)
(0.0120548 0.0205187 -8.1048e-13)
(0.0103171 0.0204175 -8.47465e-13)
(0.00858671 0.0203322 -8.73837e-13)
(0.00686226 0.0202626 -9.11854e-13)
(0.00514256 0.0202085 -9.32166e-13)
(0.00342643 0.0201699 -9.60727e-13)
(0.00171283 0.0201467 -9.74744e-13)
(2.53605e-08 0.020139 -9.85812e-13)
(-0.00171278 0.0201467 -1.05705e-12)
(-0.00342638 0.0201699 -5.75314e-13)
(-0.00514251 0.0202085 -2.0528e-12)
(-0.00686221 0.0202626 -1.30825e-12)
(0.0520357 0.25918 -2.70706e-12)
(0.0620626 0.25525 -1.76521e-12)
(0.0718553 0.250566 -3.47086e-12)
(0.0813489 0.245108 -4.19025e-12)
(0.090465 0.238861 -5.52296e-12)
(0.0991102 0.231819 -6.12613e-12)
(0.107177 0.223994 -6.89148e-12)
(0.114547 0.215427 -6.981e-12)
(0.121098 0.206193 -6.63532e-12)
(0.126716 0.19641 -6.1172e-12)
(0.131307 0.186232 -4.71907e-12)
(0.134812 0.175849 -3.85953e-12)
(0.137217 0.165463 -2.06384e-12)
(0.138559 0.15527 -1.26615e-12)
(0.138922 0.145442 1.354e-13)
(0.138421 0.136107 5.19774e-13)
(0.137191 0.127347 1.1763e-12)
(0.135366 0.119202 1.18912e-12)
(0.133072 0.111678 1.23442e-12)
(0.13042 0.104758 1.0825e-12)
(0.127504 0.0984113 8.80775e-13)
(0.124401 0.0926003 7.70441e-13)
(0.121174 0.0872833 5.83832e-13)
(0.117873 0.0824189 5.8875e-13)
(0.114534 0.0779669 4.85221e-13)
(0.111189 0.0738898 5.67045e-13)
(0.107859 0.0701527 5.01428e-13)
(0.104561 0.0667236 5.91602e-13)
(0.101307 0.0635734 5.40318e-13)
(0.0981075 0.0606759 5.87631e-13)
(0.0949671 0.0580072 4.80943e-13)
(0.0918902 0.0555461 5.07065e-13)
(0.0888791 0.0532732 3.82029e-13)
(0.0859348 0.0511715 3.8056e-13)
(0.0830575 0.0492255 2.52385e-13)
(0.0802464 0.0474212 2.37291e-13)
(0.0775003 0.0457465 1.1854e-13)
(0.0748175 0.0441901 9.80533e-14)
(0.0721963 0.0427422 -4.84884e-15)
(0.0696344 0.0413938 -2.93484e-14)
(0.0671296 0.0401368 -1.20357e-13)
(0.0646797 0.0389641 -1.45897e-13)
(0.0622823 0.0378692 -2.20554e-13)
(0.0599349 0.0368462 -2.41186e-13)
(0.0576354 0.0358899 -3.00839e-13)
(0.0553815 0.0349955 -3.24511e-13)
(0.0531708 0.0341585 -3.74365e-13)
(0.0510013 0.0333753 -3.97769e-13)
(0.0488708 0.0326421 -4.38354e-13)
(0.0467772 0.0319558 -4.61075e-13)
(0.0447186 0.0313135 -4.93855e-13)
(0.0426932 0.0307124 -5.15786e-13)
(0.0406989 0.0301502 -5.4221e-13)
(0.0387341 0.0296247 -5.63484e-13)
(0.0367971 0.0291337 -5.84966e-13)
(0.0348862 0.0286756 -6.05897e-13)
(0.0329997 0.0282486 -6.23739e-13)
(0.0311362 0.0278512 -6.44647e-13)
(0.0292941 0.0274819 -6.60538e-13)
(0.0274721 0.0271397 -6.81915e-13)
(0.0256686 0.0268231 -6.96724e-13)
(0.0238824 0.0265314 -7.19129e-13)
(0.0221121 0.0262634 -7.34179e-13)
(0.0203565 0.0260183 -7.58163e-13)
(0.0186142 0.0257954 -7.74638e-13)
(0.0168841 0.0255939 -8.00887e-13)
(0.015165 0.0254133 -8.20129e-13)
(0.0134557 0.025253 -8.49391e-13)
(0.0117551 0.0251125 -8.73342e-13)
(0.0100619 0.0249914 -9.06353e-13)
(0.00837524 0.0248893 -9.37597e-13)
(0.00669386 0.0248061 -9.74746e-13)
(0.0050167 0.0247416 -1.00837e-12)
(0.00334273 0.0246955 -1.04968e-12)
(0.00167103 0.0246678 -1.07565e-12)
(2.33379e-08 0.0246586 -1.09281e-12)
(-0.00167098 0.0246678 -1.31915e-12)
(-0.00334268 0.0246955 -7.06605e-14)
(-0.00501665 0.0247416 -3.92778e-12)
(-0.00669381 0.0248061 4.05954e-13)
(0.0438901 0.234577 9.49974e-12)
(0.0522543 0.231239 8.07832e-12)
(0.0603777 0.227295 4.75988e-12)
(0.0682066 0.22275 4.44364e-12)
(0.075681 0.21761 3.92924e-12)
(0.0827353 0.211893 3.9455e-12)
(0.0892991 0.205627 3.8159e-12)
(0.0953001 0.198856 4.0094e-12)
(0.100669 0.191642 4.18772e-12)
(0.105343 0.184067 4.45074e-12)
(0.109277 0.176229 4.83147e-12)
(0.112443 0.168239 5.03045e-12)
(0.114839 0.160213 5.37528e-12)
(0.116488 0.152264 5.41122e-12)
(0.117434 0.144492 5.60379e-12)
(0.117742 0.136978 5.45675e-12)
(0.117483 0.129782 5.4338e-12)
(0.116736 0.122945 5.14417e-12)
(0.115575 0.116487 4.93934e-12)
(0.114071 0.110417 4.61455e-12)
(0.112287 0.104732 4.37503e-12)
(0.110278 0.0994234 4.10081e-12)
(0.108093 0.094475 3.89463e-12)
(0.105773 0.0898692 3.68859e-12)
(0.103351 0.0855864 3.51791e-12)
(0.100856 0.0816064 3.35811e-12)
(0.0983118 0.0779087 3.19826e-12)
(0.0957376 0.0744736 3.05803e-12)
(0.0931492 0.0712818 2.89334e-12)
(0.0905592 0.0683153 2.7585e-12)
(0.0879778 0.0655568 2.58534e-12)
(0.0854131 0.0629906 2.45655e-12)
(0.0828712 0.0606016 2.28554e-12)
(0.0803571 0.0583762 2.16628e-12)
(0.0778742 0.0563019 2.00663e-12)
(0.0754251 0.0543669 1.90004e-12)
(0.0730117 0.0525607 1.75733e-12)
(0.0706351 0.0508735 1.66387e-12)
(0.0682958 0.0492966 1.53962e-12)
(0.065994 0.0478217 1.45786e-12)
(0.0637295 0.0464414 1.35107e-12)
(0.061502 0.045149 1.27908e-12)
(0.0593106 0.0439384 1.18813e-12)
(0.0571546 0.0428038 1.1244e-12)
(0.055033 0.0417402 1.04732e-12)
(0.0529448 0.0407429 9.89986e-13)
(0.0508888 0.0398075 9.24769e-13)
(0.0488638 0.0389301 8.7296e-13)
(0.0468687 0.0381072 8.1799e-13)
(0.0449021 0.0373355 7.70902e-13)
(0.042963 0.036612 7.24653e-13)
(0.0410499 0.0359339 6.81645e-13)
(0.0391617 0.0352987 6.42606e-13)
(0.0372972 0.0347041 6.03022e-13)
(0.0354551 0.034148 5.69987e-13)
(0.0336342 0.0336284 5.3216e-13)
(0.0318334 0.0331437 5.07083e-13)
(0.0300515 0.032692 4.72624e-13)
(0.0282874 0.0322721 4.45369e-13)
(0.0265399 0.0318824 4.13655e-13)
(0.024808 0.0315219 3.92216e-13)
(0.0230905 0.0311893 3.61484e-13)
(0.0213864 0.0308836 3.41557e-13)
(0.0196947 0.0306039 3.12208e-13)
(0.0180143 0.0303494 2.93482e-13)
(0.0163443 0.0301193 2.65151e-13)
(0.0146836 0.0299129 2.47454e-13)
(0.0130313 0.0297297 2.20947e-13)
(0.0113863 0.0295691 2.04165e-13)
(0.00974786 0.0294307 1.78095e-13)
(0.00811487 0.0293141 1.6491e-13)
(0.00648645 0.029219 1.43848e-13)
(0.00486166 0.0291452 1.40726e-13)
(0.00323961 0.0290925 1.31192e-13)
(0.00161953 0.029061 1.34209e-13)
(2.0638e-08 0.0290504 1.26525e-13)
(-0.00161949 0.029061 1.69267e-13)
(-0.00323957 0.0290925 -5.18646e-14)
(-0.00486162 0.0291452 6.05335e-13)
(-0.00648641 0.029219 -6.57535e-13)
(0.0367514 0.214076 8.40525e-12)
(0.0437116 0.211304 9.04701e-12)
(0.0504527 0.208049 5.48438e-12)
(0.0569324 0.204323 5.3809e-12)
(0.0631068 0.200142 5.11577e-12)
(0.0689305 0.195529 5.0877e-12)
(0.0743576 0.190513 5.00375e-12)
(0.0793437 0.185133 4.98971e-12)
(0.0838479 0.179435 4.92249e-12)
(0.0878358 0.173477 4.8553e-12)
(0.0912824 0.167322 4.76274e-12)
(0.0941738 0.161039 4.63187e-12)
(0.0965094 0.154699 4.49796e-12)
(0.0983019 0.148372 4.31268e-12)
(0.0995757 0.142119 4.13859e-12)
(0.100365 0.135997 3.92603e-12)
(0.100711 0.130048 3.73092e-12)
(0.100657 0.124308 3.52684e-12)
(0.10025 0.118799 3.34e-12)
(0.0995329 0.113539 3.17383e-12)
(0.0985489 0.108535 3.01705e-12)
(0.0973367 0.103791 2.89687e-12)
(0.0959318 0.0993044 2.76801e-12)
(0.0943659 0.0950707 2.68168e-12)
(0.092667 0.0910824 2.56413e-12)
(0.0908599 0.0873301 2.49293e-12)
(0.088966 0.0838036 2.37133e-12)
(0.0870039 0.0804917 2.30191e-12)
(0.0849894 0.0773831 2.17079e-12)
(0.0829361 0.0744663 2.09852e-12)
(0.0808555 0.07173 1.96129e-12)
(0.0787573 0.0691633 1.88756e-12)
(0.0766497 0.0667554 1.75134e-12)
(0.0745393 0.0644964 1.67927e-12)
(0.0724319 0.0623766 1.55031e-12)
(0.0703318 0.060387 1.48217e-12)
(0.0682429 0.0585192 1.36423e-12)
(0.0661681 0.0567652 1.30096e-12)
(0.0641097 0.0551176 1.19553e-12)
(0.0620695 0.0535696 1.13716e-12)
(0.0600489 0.0521148 1.04429e-12)
(0.0580488 0.0507472 9.90477e-13)
(0.0560699 0.0494615 9.09535e-13)
(0.0541126 0.0482524 8.59943e-13)
(0.052177 0.0471154 7.89997e-13)
(0.0502631 0.0460461 7.44328e-13)
(0.0483707 0.0450406 6.84331e-13)
(0.0464996 0.044095 6.42338e-13)
(0.0446492 0.043206 5.91245e-13)
(0.0428191 0.0423706 5.52654e-13)
(0.0410088 0.0415857 5.09329e-13)
(0.0392175 0.0408486 4.73847e-13)
(0.0374447 0.040157 4.37191e-13)
(0.0356897 0.0395086 4.04479e-13)
(0.0339516 0.0389012 3.73431e-13)
(0.0322298 0.038333 3.43104e-13)
(0.0305234 0.0378021 3.16741e-13)
(0.0288318 0.0373069 2.88564e-13)
(0.0271541 0.036846 2.65579e-13)
(0.0254895 0.0364179 2.39213e-13)
(0.0238373 0.0360213 2.19295e-13)
(0.0221965 0.0356553 1.94281e-13)
(0.0205666 0.0353185 1.76448e-13)
(0.0189466 0.0350103 1.53083e-13)
(0.0173357 0.0347296 1.36817e-13)
(0.0157333 0.0344756 1.13601e-13)
(0.0141384 0.0342478 9.94312e-14)
(0.0125504 0.0340454 7.9562e-14)
(0.0109684 0.033868 6.345e-14)
(0.00939176 0.0337151 3.98567e-14)
(0.0078196 0.0335862 2.12389e-14)
(0.00625119 0.0334811 3.45796e-15)
(0.00468577 0.0333996 -1.28866e-14)
(0.00312262 0.0333414 -3.62665e-14)
(0.0015611 0.0333065 -4.74252e-14)
(1.87356e-08 0.0332949 -6.0615e-14)
(-0.00156106 0.0333065 -1.64574e-13)
(-0.00312258 0.0333414 3.54392e-13)
(-0.00468573 0.0333996 -1.30295e-12)
(-0.00625115 0.0334811 9.09228e-13)
(0.0307614 0.196986 1.3317e-11)
(0.0365735 0.194711 1.22455e-11)
(0.0421986 0.192048 8.10931e-12)
(0.0476045 0.189014 7.95432e-12)
(0.0527587 0.185623 7.74269e-12)
(0.0576294 0.181899 7.74937e-12)
(0.0621858 0.177867 7.67021e-12)
(0.0663991 0.173557 7.66572e-12)
(0.0702441 0.169004 7.51937e-12)
(0.0736998 0.164249 7.43086e-12)
(0.0767511 0.159335 7.21122e-12)
(0.0793899 0.154307 7.05312e-12)
(0.0816152 0.149212 6.79588e-12)
(0.0834333 0.144094 6.59425e-12)
(0.0848575 0.138997 6.33217e-12)
(0.0859065 0.133957 6.1129e-12)
(0.0866036 0.129008 5.86946e-12)
(0.0869751 0.124178 5.65315e-12)
(0.0870487 0.119488 5.43917e-12)
(0.086853 0.114955 5.237e-12)
(0.086416 0.110591 5.05047e-12)
(0.0857646 0.106404 4.86398e-12)
(0.0849245 0.102398 4.69456e-12)
(0.0839195 0.0985754 4.51969e-12)
(0.0827716 0.0949353 4.35629e-12)
(0.0815007 0.0914751 4.18892e-12)
(0.0801249 0.0881908 4.02526e-12)
(0.0786603 0.0850772 3.8642e-12)
(0.0771215 0.0821284 3.69999e-12)
(0.0755211 0.0793379 3.54679e-12)
(0.0738703 0.0766991 3.38557e-12)
(0.072179 0.074205 3.24272e-12)
(0.0704558 0.0718485 3.08889e-12)
(0.068708 0.0696227 2.95818e-12)
(0.066942 0.0675209 2.81507e-12)
(0.0651634 0.0655365 2.69703e-12)
(0.0633768 0.0636631 2.56648e-12)
(0.0615863 0.0618947 2.46056e-12)
(0.0597952 0.0602254 2.34309e-12)
(0.0580064 0.0586498 2.24824e-12)
(0.0562222 0.0571627 2.14363e-12)
(0.0544445 0.0557591 2.0586e-12)
(0.052675 0.0544345 1.96619e-12)
(0.0509149 0.0531845 1.88984e-12)
(0.0491653 0.0520052 1.80878e-12)
(0.0474268 0.0508926 1.74009e-12)
(0.0457001 0.0498433 1.66945e-12)
(0.0439856 0.048854 1.60757e-12)
(0.0422834 0.0479216 1.54636e-12)
(0.0405938 0.0470432 1.49052e-12)
(0.0389167 0.0462161 1.43774e-12)
(0.037252 0.0454379 1.38734e-12)
(0.0355996 0.0447062 1.34202e-12)
(0.0339593 0.044019 1.29649e-12)
(0.0323306 0.0433743 1.2577e-12)
(0.0307134 0.0427701 1.21664e-12)
(0.0291071 0.0422048 1.18357e-12)
(0.0275114 0.0416769 1.14663e-12)
(0.0259258 0.0411848 1.11859e-12)
(0.0243498 0.0407273 1.08557e-12)
(0.022783 0.0403031 1.062e-12)
(0.0212248 0.039911 1.03279e-12)
(0.0196746 0.0395502 1.01326e-12)
(0.018132 0.0392195 9.87928e-13)
(0.0165964 0.0389182 9.72303e-13)
(0.0150671 0.0386454 9.5095e-13)
(0.0135437 0.0384006 9.39388e-13)
(0.0120256 0.038183 9.22688e-13)
(0.0105122 0.0379922 9.16361e-13)
(0.00900281 0.0378276 9.0509e-13)
(0.00749698 0.0376889 9.07274e-13)
(0.00599408 0.0375758 9.03995e-13)
(0.00449351 0.0374881 9.16143e-13)
(0.00299471 0.0374254 9.22988e-13)
(0.00149722 0.0373879 9.38704e-13)
(1.63828e-08 0.0373753 9.34294e-13)
(-0.00149718 0.0373879 1.05834e-12)
(-0.00299468 0.0374254 3.37094e-13)
(-0.00449348 0.0374881 2.52332e-12)
(-0.00599405 0.0375758 -4.74531e-14)
(0.0258252 0.182671 1.21472e-11)
(0.0307061 0.180812 1.16417e-11)
(0.0354329 0.17864 7.6243e-12)
(0.0399809 0.176169 7.51519e-12)
(0.044326 0.173416 7.29069e-12)
(0.048445 0.170397 7.23933e-12)
(0.0523163 0.167134 7.11145e-12)
(0.0559202 0.163651 7.0327e-12)
(0.0592397 0.159974 6.84094e-12)
(0.062261 0.156131 6.6942e-12)
(0.0649739 0.152154 6.44573e-12)
(0.0673725 0.148074 6.25654e-12)
(0.0694553 0.143923 5.98917e-12)
(0.0712252 0.139732 5.78328e-12)
(0.0726889 0.135531 5.52569e-12)
(0.0738572 0.131347 5.32158e-12)
(0.0747435 0.127205 5.08939e-12)
(0.0753637 0.123126 4.89762e-12)
(0.075735 0.11913 4.6941e-12)
(0.0758758 0.115231 4.51801e-12)
(0.0758049 0.111442 4.33789e-12)
(0.0755409 0.107772 4.17596e-12)
(0.075102 0.104228 4.01065e-12)
(0.0745057 0.100815 3.85967e-12)
(0.0737687 0.0975349 3.70191e-12)
(0.0729066 0.0943899 3.55944e-12)
(0.071934 0.0913793 3.40555e-12)
(0.0708641 0.0885019 3.27081e-12)
(0.0697094 0.0857554 3.12049e-12)
(0.0684809 0.0831368 2.99392e-12)
(0.0671888 0.0806427 2.84886e-12)
(0.0658422 0.078269 2.73124e-12)
(0.0644491 0.0760118 2.59359e-12)
(0.0630169 0.0738665 2.48535e-12)
(0.061552 0.0718287 2.35689e-12)
(0.0600602 0.069894 2.25801e-12)
(0.0585465 0.0680579 2.13982e-12)
(0.0570152 0.0663159 2.04987e-12)
(0.0554704 0.0646638 1.94247e-12)
(0.0539153 0.0630975 1.86087e-12)
(0.0523529 0.0616129 1.76431e-12)
(0.0507858 0.0602061 1.6904e-12)
(0.049216 0.0588735 1.60445e-12)
(0.0476456 0.0576115 1.53766e-12)
(0.0460759 0.0564168 1.46185e-12)
(0.0445085 0.0552863 1.40158e-12)
(0.0429444 0.054217 1.33531e-12)
(0.0413844 0.0532059 1.28105e-12)
(0.0398295 0.0522505 1.2236e-12)
(0.0382801 0.0513483 1.17486e-12)